% Model:              cav_with_siliconeslab_puretube_rigid_end.mph
% Version:            COMSOL 6.2.0.290
% Date:               Mar 13 2026, 12:28
% Table:              Table 14 - Point Evaluation 2
% freq (Hz)                                       Total acoustic pressure (Pa), Point: 5            Total acoustic pressure (Pa), Point: 6            Total acoustic pressure (Pa), Point: 7            Total acoustic pressure (Pa), Point: 8            Total acoustic velocity, z-component (m/s), Point: 5 Total acoustic velocity, z-component (m/s), Point: 6 Total acoustic velocity, z-component (m/s), Point: 7 Total acoustic velocity, z-component (m/s), Point: 8
100                                               -8.684336268524216E-8+2.2021297527642894E-4i      -3.0847063405023985E-6+2.2019178542252927E-4i     2.0049545197808434+0.024497416754641354i          2.0037422221512635+0.024482605253296597i          2.1343949079517184E-10-5.35248310528025E-7i          1.2228909406564183E-8-1.013618016134716E-6i          1.7395454045371773E-8-1.432934457599824E-6i          2.0707489031837515E-6-1.6948216013630663E-4i
112                                               -1.0897222403495406E-7+2.4682606681963377E-4i     -3.87238705573828E-6+2.467962738949252E-4i        2.0049165439603294+0.027436744389941287i          2.003395897716974+0.027415935999273406i           2.678285045149437E-10-5.999340468764383E-7i          1.5352259287784844E-8-1.1361655561869334E-6i         2.183391456942311E-8-1.605848108178247E-6i           2.597386131427857E-6-1.8980715205524248E-4i
125                                               -1.3579161056170851E-7+2.7572939540697024E-4i     -4.82793401833049E-6+2.756879391224331E-4i        2.004870554316215+0.030620876260091353i           2.002976504230272+0.03059194970538242i            3.337469953158588E-10-6.701864752439898E-7i          1.9141618120431777E-8-1.2692784390191346E-6i         2.72163873776117E-8-1.7935428162001858E-6i           3.2351009129083887E-6-2.1182094918155629E-4i
140                                               -1.7042452525872864E-7+3.091844799662466E-4i      -6.0633419137822255E-6+3.091261673431285E-4i      2.004811222907668+0.034294672331233185i           2.0024354726467406+0.03425403474816494i           4.188716542938188E-10-7.515024673836412E-7i          2.4041417693221228E-8-1.4233821526012505E-6i         3.4172221277091374E-8-2.01065240483578E-6i           4.057716734750484E-6-2.3721433796637092E-4i
160                                               -2.227676718598217E-7+3.539894957420886E-4i       -7.933663821681512E-6+3.5390229474818686E-4i      2.004721673482556+0.039192686382422307i           2.001618940778645+0.03913203103040132i            5.47529841178367E-10-8.604057481582949E-7i           3.146068350752459E-8-1.6298195207001086E-6i          4.4696331539240975E-8-2.3011481254442614E-6i         5.299098346788833E-6-2.7105876637170527E-4i
180                                               -2.8218720611598993E-7+3.990516988960535E-4i      -1.006147802106423E-5+3.989272853204001E-4i       2.0046201941709523+0.044090207713619066i          2.000693711027247+0.044003852713039845i           6.935865010468477E-10-9.699343103534668E-7i          3.9903288613459955E-8-1.8375099644930142E-6i         5.665979494217854E-8-2.5929622711265552E-6i          6.705557268587858E-6-3.048858749315266E-4i
200                                               -3.487193094133343E-7+4.444050514246937E-4i       -1.2449884983693953E-5+4.442339966189876E-4i      2.0045067890001946+0.048987172998247425i          1.9996598483602188+0.048868728160713984i          8.571324622699829E-10-1.0801707235046098E-6i         4.9382264639775086E-8-2.0466191383883915E-6i         7.007641144410616E-8-2.8862688565527054E-6i          8.276928266505874E-6-3.386935073004026E-4i
224                                               -4.3800337951891346E-7+4.992621891061063E-4i      -1.5664911650766655E-5+4.990211294784022E-4i      2.004354966805303+0.054862707286698995i           1.9982759200946756+0.05469632330794221i           1.0766165416571952E-9-1.2135074206593986E-6i         6.214587848409757E-8-2.2996609820796227E-6i          8.811656686875316E-8-3.2404567669589436E-6i          1.0379995892961071E-5-3.7923392602343955E-4i
250                                               -5.464409515859356E-7+5.592912600690912E-4i       -1.9584974270587384E-5+5.589548865679647E-4i      2.004171130310189+0.06122673202470243i            1.9966004160795097+0.060995463591182436i          1.343201110759501E-9-1.359415475860162E-6i           7.771463161264228E-8-2.5767168332623293E-6i          1.1008219311824887E-7-3.6272380882177305E-6i         1.292558548267536E-5-4.231132578929106E-4i
280                                               -6.868374902172199E-7+6.29434043679235E-4i        -2.468567028656183E-5+6.28959173685446E-4i        2.0039340045884453+0.06856818324480206i           1.9944396284744093+0.06824333641883759i           1.6883805312464106E-9-1.5299066906571873E-6i         9.79823643612761E-8-2.9006798365549524E-6i           1.386135678369666E-7-4.078026164295509E-6i           1.6207544266664726E-5-4.73686264466947E-4i
315                                               -8.715574606830892E-7+7.126208018681102E-4i       -3.1440867825403245E-5+7.119403560841778E-4i      2.0036235224410524+0.07713067962085667i           1.9916110549724249+0.07666828168918029i           2.142579745996404E-9-1.7321038075327382E-6i          1.2484152809631597E-7-3.2852380268757084E-6i         1.7631421290611463E-7-4.6108810727453646E-6i         2.0502208001681947E-5-5.326017093187338E-4i
355                                               -1.1106564779525512E-6+8.097379531280156E-4i      -4.026089099443493E-5+8.087559315711665E-4i       2.003224115487548+0.08691260040867384i            1.9879734447845336+0.08625097173953333i           2.7305680859833164E-9-1.9681619193271174E-6i         1.5993966061105415E-7-3.734718581247496E-6i          2.253949733859546E-7-5.230343142094662E-6i           2.60225987598856E-5-5.998057438999851E-4i
400                                               -1.4159670350574733E-6+9.22009562851448E-4i       -5.165187624885274E-5+9.205899145774007E-4i       2.002718036694664+0.09791174660990856i            1.9833660306099146+0.09696569995131295i           3.4815154211390344E-9-2.2410570215883824E-6i         2.0531628474930542E-7-4.25510124696783E-6i           2.885476016033197E-7-5.94268027299559E-6i            3.3010441651971285E-5-6.752269512827244E-4i
450                                               -1.801271618957308E-6+0.0010511113295319711i      -6.624080591227321E-5+0.00104906298577696i        2.002085390091322+0.1101251738202671i             1.9776089123445877+0.10877892994133341i           4.429436435901759E-9-2.554863143482177E-6i           2.635084768923433E-7-4.854579414660785E-6i           3.690555920259107E-7-6.756469802515636E-6i           4.173513684989355E-5-7.587725200726488E-4i
500                                               -2.236221402870657E-6+0.0011855560933366172i      -8.300897426912581E-5+0.0011827038206785523i      2.0013788795720524+0.12232914907694037i           1.9711828532152704+0.12048362227386969i           5.499798889673193E-9-2.8816593810473303E-6i          3.304956869036468E-7-5.480175586856208E-6i           4.6108995902341826E-7-7.597611407930464E-6i          5.146447257110478E-5-8.4201735271112E-4i
560                                               -2.8253956916196184E-6+0.0013551780605180759i     -1.0626045351721486E-4+0.0013510883413548449i     2.000433867969847+0.13695957954134952i            1.9625924550363019+0.1343689565039175i            6.950233182477526E-9-3.2939656316003796E-6i          4.235570431357854E-7-6.2714428476677685E-6i          5.878664423736622E-7-8.649395335005337E-6i           6.445541982812066E-5-9.414688166595249E-4i
630                                               -3.607950134168333E-6+0.001566698692936732i       -1.3818053558604503E-4+0.001560715083997285i      1.9991979000129319+0.15400547977675874i           1.9513648496416758+0.15032100685459465i           8.877767829791658E-9-3.8081234695262916E-6i          5.516253815770949E-7-7.2613419465003065E-6i          7.604091527310344E-7-9.946186798437998E-6i           8.14075002103068E-5-0.0010568163500098288i
710                                               -4.630723426660716E-6+0.0018304278868087132i      -1.8190060417019752E-4+0.001821550022100937i      1.9976104458728718+0.1734507863468526i            1.9369549598543785+0.1681845543657029i            1.1398965309521872E-8-4.449198930730947E-6i          7.275818977209376E-7-8.500525980755329E-6i           9.941447318338223E-7-1.154066020227445E-5i           1.0311800336849961E-4-0.0011876421643433012i
800                                               -5.945801206146003E-6+0.002162443763289552i       -2.420537674322709E-4+0.0021491317503654806i      1.9956035141294721+0.1952718572945222i            1.9187495145581464+0.18775229162229426i           1.4644530192723106E-8-5.256282231939569E-6i          9.706102190516597E-7-1.0068166166704568E-5i          1.3113400006194558E-6-1.3514893840236136E-5i         1.304690190876745E-4-0.0013333990537971157i
900                                               -7.600265448769073E-6+0.002588566168378743i       -3.258027560475727E-4+0.002568409202717072i       1.9931027582216447+0.21943318662511882i           1.896071983358283+0.20875154942401816i            1.87353783736973E-8-6.292148560559342E-6i            1.3105565392091797E-6-1.2091734652858865E-5i         1.7455963145896982E-6-1.600058350158774E-5i          1.6440887033743263E-4-0.0014933893109177236i
1000                                              -9.414473014867834E-6+0.003095855849103568i       -4.326303844286455E-4+0.003066121729544604i       1.9903226752806007+0.24348190960550478i           1.8708489084748088+0.22886806691478961i           2.323523496577053E-8-7.5253549160122425E-6i          1.7464600211467868E-6-1.4515952497038855E-5i         2.2890814359648077E-6-1.890032811589918E-5i          2.0197412039384095E-4-0.0016511099760177436i
1120                                              -1.1624058941100396E-5+0.0038575623281576253i     -6.029777178350735E-4+0.003811177217406492i       1.9866303506907614+0.2721422151474026i            1.8372686933850404+0.25168462834316524i           2.875274454305678E-8-9.3770890892738E-6i             2.445790483831439E-6-1.8182125766501695E-5i          3.136461670318014E-6-2.3159705716088997E-5i          2.516448357325318E-4-0.0018371218605109868i
1250                                              -1.3387520129975088E-5+0.004973870254507289i      -8.657313625740245E-4+0.004899658380259599i       1.9822193361901146+0.3028405819057538i            1.7968680888736333+0.2745284238705597i            3.3271077692062005E-8-1.2090947208253174E-5i         3.5319928036696266E-6-2.359930663800207E-5i          4.409132522597899E-6-2.925702661834789E-5i           3.1078333644872947E-4-0.0020343859434301097i
1400                                              -1.1414716241648533E-5+0.006936301841025083i      -0.0013457063143350837+0.006807630849245377i      1.9766763966488203+0.3375107528842363i            1.7450880883717614+0.29797983583205456i           2.891165050661424E-8-1.686195475722018E-5i           5.53071025008487E-6-3.321039507346299E-5i            6.663333163873316E-6-3.972650229170651E-5i           3.852361032658822E-4-0.002256487682404526i
1600                                              3.2206843513352485E-5+0.012404074497016013i       -0.002705853988930284+0.012113239373154795i       1.9689612178226266+0.3807944642936884i            1.6670390011195007+0.3224466127706058i            -7.583559451801164E-8-3.015545885154539E-5i          1.1229639161287828E-5-6.0300613263378965E-5i         1.2800623945167915E-5-6.82153202604735E-5i           4.922182777528562E-4-0.0025459126047210055i
1800                                              9.399956454595368E-4+0.0366826393956956i          -0.008237793611716083+0.03579011608084967i        1.9642408698950309+0.4055150893831083i            1.5718727343031338+0.3249347669364618i            -2.276812177374977E-6-8.91842122202817E-5i           3.403708768717908E-5-1.8245035695508595E-4i          3.635911768729934E-5-1.9316966534388674E-4i          5.890097004306224E-4-0.002859404263964861i
2000                                              0.0035330499840887583-0.05363033520885774i        0.018346687792646685-0.050584757887406066i        1.926167708410141+0.5396853962075355i             1.5161479017592105+0.425817888909254i             -8.604761023688082E-6+1.3039536479759976E-4i         -8.234662200618035E-5+2.6698186742294175E-4i         -8.114124489312753E-5+2.6132623921857126E-4i         8.102479716582386E-4-0.0029014152787987567i
2240                                              4.363621821392039E-4-0.015181633098036015i        0.005198648888781874-0.014297750076869722i        1.9240433271828936+0.5607663014713715i            1.383290943166807+0.403251939401468i              -1.0659856311336704E-6+3.691570979088602E-5i         -2.3525697664787347E-5+7.87963527388482E-5i          -2.0736144438482048E-5+6.88824579585735E-5i          9.484943627486812E-4-0.0032550473369704694i
2500                                              2.212130321848416E-4-0.009132216080889446i        0.003463707528158095-0.008477955647820582i        1.9073425863215983+0.6164322880164924i            1.2416997382462762+0.4013391693337113i            -5.415647573116927E-7+2.2208517272761803E-5i         -1.6266319773136806E-5+4.9756577862732596E-5i        -1.2321977670844284E-5+3.733618362787001E-5i         0.0011383826506316899-0.003522537330041817i
2800                                              1.53940251333899E-4-0.006580240049938778i         0.0028323199353743186-0.005972597407672176i       1.8843099117925786+0.6840476201038979i            1.0693913655044551+0.38823371939548723i           -3.777086952363341E-7+1.6005039919848643E-5i         -1.4137621318352894E-5+3.871204613334069E-5i         -8.505921390012885E-6+2.302616312053953E-5i          0.00137008354860665-0.003774171900544539i
3150                                              1.240713593555886E-4-0.005184362317997176i        0.0026095745618162584-0.004532862953029187i       1.853776487584041+0.7631715369311057i             0.8581549759185256+0.353303088101364i             -3.053307708425518E-7+1.2612859425839879E-5i         -1.4445334083216523E-5+3.498874198805666E-5i         -5.80767955096705E-6+1.384386338465253E-5i           0.0016455021615102649-0.003997024858206898i
3550                                              1.0882269172100153E-4-0.004336262446946871i       0.002724722871082519-0.003512221483231124i        1.814640885182705+0.8523366428006574i             0.6083497622514298+0.28575238134341724i           -2.6945620521852484E-7+1.0554401626482638E-5i        -1.826232705096708E-5+3.8853531462546E-5i            -2.5152338155391962E-6+5.1302762585933295E-6i        0.0019532021037058835-0.004158410737529526i
4000                                              1.1313815422854705E-4-0.004439033215500256i       0.004676228753377902-0.002532991398447579i        1.7671204760358044+0.9493298517215227i            0.3235973115586311+0.17385482187882148i           -2.8770730003952417E-7+1.0821459325227515E-5i        -4.678790028998552E-5+8.727513745193562E-5i          1.787278302069258E-5-3.3750370641445216E-5i          0.0022688047448319922-0.004223219571735482i
4500                                              0.0023535400093748176-0.03693044922883273i        0.0064838428305469716-0.040152113675515876i       1.695704590809268+1.0953104463054821i             0.04962450979256379+0.03285534820986357i          -5.673287988228909E-6+8.973648070125415E-5i          2.1020129191301655E-4-3.144100103400361E-4i          1.8809100025000307E-4-2.782799610328039E-4i          0.002643402572145328-0.004093784388536004i
5000                                              1.9232573876514446E-4-0.005832019706160821i       7.260595563475773E-5-0.007111437987682075i        1.636322841255048+1.1637954396516466i             -0.26095687973951825-0.18557665617267605i         -4.559767491940008E-7+1.4169557263793026E-5i         5.042347554660228E-5-7.05592621068598E-5i            4.4439249802093953E-5-6.206898386843668E-5i          0.002790383500554488-0.003923376742072452i
5600                                              2.554782129621275E-4-0.0071092404966989955i       0.004065426464703907-0.0058651829996572745i       1.5446460068235723+1.27798158352952i              -0.5576822379030106-0.4613736515186992i           -6.254263055777872E-7+1.7307853435705947E-5i         -1.1973252260279038E-6+1.4594195150047295E-6i        1.8803208146504429E-6-2.2792303789529358E-6i         0.002899510272163329-0.003504496565727873i
6300                                              4.5498436271445566E-4-0.014344990000696396i       0.007794597351709076-0.012415257476146694i        1.433348134606171+1.398815051216503i              -0.8293990295397865-0.8092842378876046i           -1.11676513618605E-6+3.4940646749944575E-5i          2.179449074747882E-5-2.2540596938001976E-5i          -1.2724254460009028E-5+1.331386425799105E-5i         0.0027800752349928614-0.0028485554369406026i
7100                                              -9.735334058661352E-5+0.0019521465222182256i      3.5955407094843934E-4+0.0034969518940314347i      1.2793267769021832+1.5446184872918824i            -0.990843657438746-1.1963071818990392i            2.349733579578206E-7-4.754166117687389E-6i           -4.096586491347161E-5+3.388805397872065E-5i          2.4996039627719498E-5-2.062539464611269E-5i          0.00237551042982485-0.001967513190992122i
8000                                              8.381101152463141E-4-0.031189035125513073i        0.03639546273990679-0.002423690722798182i         1.1308870623619205+1.663043581479041i             -1.056448024865551-1.5535318150166066i            -2.103467165586302E-6+7.610307654774576E-5i          -2.383604662271973E-4+1.6756680465212066E-4i         2.0765452283835707E-4-1.460613232541871E-4i          0.001407369914483171-9.555294676416366E-4i
9000                                              -8.231770176547515E-4+0.011014273092382669i       -0.010858839336997989+0.0028792944901534488i      0.8742491814473398+1.8026925565743386i            -0.8744527349643568-1.8031446696963553i           2.0260104017969014E-6-2.6894402273813558E-5i         4.4495636425023406E-5-2.1293537315689352E-5i         -3.2778311548210655E-5+1.5503814998249708E-5i        1.401600945437576E-4-6.780754280987886E-5i
