% Model:              cav_with_siliconeslab_puretube_rigid_end.mph
% Version:            COMSOL 6.2.0.290
% Date:               Mar 15 2026, 10:53
% Table:              Table 14 - Point Evaluation 2
% freq (Hz)                                       Total acoustic pressure (Pa), Point: 5            Total acoustic pressure (Pa), Point: 6            Total acoustic pressure (Pa), Point: 7            Total acoustic pressure (Pa), Point: 8            Total acoustic velocity, z-component (m/s), Point: 5 Total acoustic velocity, z-component (m/s), Point: 6 Total acoustic velocity, z-component (m/s), Point: 7 Total acoustic velocity, z-component (m/s), Point: 8
100                                               0.017297368138923127-0.13072419815637457i         0.01881879374448217-0.1305138440460487i           1.9861576774840193+0.1542083316753937i            1.989445358943814+0.15476623659281213i            -4.202479936209641E-5+3.1760079859479914E-4i         -4.5752877691293984E-5+3.172631261560388E-4i         -4.5724068586150185E-5+3.1481321674246506E-4i        -3.269520244876811E-5+1.4732741878938064E-4i
112                                               0.013847582925274302-0.11720207349784692i         0.01537534910101225-0.11701143431472301i          1.9895619180986195+0.1435750545150684i            1.9925540845854146+0.14406201947371228i           -3.364338640110815E-5+2.847482044041518E-4i          -3.738743035278502E-5+2.844802508028022E-4i          -3.735119326116299E-5+2.8173477208994564E-4i         -2.376695073505403E-5+9.384013113877976E-5i
125                                               0.011157014246337197-0.10538100977088441i         0.012690171349430296-0.1052073726189817i          1.9922009691803981+0.13487639187574765i           1.9948284645123588+0.13529783490576283i           -2.7106525319488628E-5+2.5602841973509797E-4i        -3.0864307015408865E-5+2.5582542029116027E-4i        -3.0819065243591526E-5+2.5275915244882654E-4i        -1.6578810710506976E-5+4.279146839235567E-5i
140                                               0.008924334446078298-0.09439717042365263i         0.010462542755759597-0.09423905890240383i         1.994370215938068+0.12748844060631187i            1.9965216053187378+0.12784410477286628i           -2.168212663855644E-5+2.2934271658950947E-4i         -2.5452975003038666E-5+2.2920477323431636E-4i        -2.539609974233173E-5+2.2576750825116065E-4i         -1.0323377233994146E-5-9.632140058239653E-6i
160                                               0.006858478379111655-0.08289543912143867i         0.00840230922717411-0.08275318254643048i          1.996343523041332+0.1207728107428314i             1.9977703975513736+0.12105077554960189i           -1.6663034228276856E-5+2.01398785949223E-4i          -2.044871131160372E-5+2.0133595750335218E-4i         -2.037423989521851E-5+1.974024135244436E-4i          -4.059764337318897E-6-7.185761515193333E-5i
180                                               0.005437158323051382-0.07391772665747184i         0.006985953617708385-0.07378743051032174i         1.9976622168380154+0.11657408432856389i           1.998263916394934+0.11678024824508772i            -1.320987208037434E-5+1.795870765688209E-4i          -1.700891662237598E-5+1.7959013378566368E-4i         -1.6914448623956395E-5+1.75158213545394E-4i          7.966541800768138E-7-1.2791608111366028E-4i
200                                               0.004417997845644268-0.0667229874599742i          0.00597147582493459-0.06660189679213963i          1.9985680857447397+0.1141529068843127i            1.9982451166741355+0.11428907189183057i           -1.0733775404779096E-5+1.6210718388259338E-4i        -1.4545649640009566E-5+1.6216972607084186E-4i        -1.4428763083868658E-5+1.572370562129127E-4i         4.836346289926564E-6-1.7961134823587464E-4i
224                                               0.0035351464913548586-0.05978183591853861i        0.005094170477880339-0.059669171112567816i        1.9993004500709204+0.11293431310951645i           1.9977375099504948+0.11298484150198898i           -8.588848420086823E-6+1.4524340678096452E-4i         -1.2416143503740828E-5+1.453714251153688E-4i         -1.2269123585270698E-5+1.398343280996935E-4i         9.070359380861399E-6-2.3749415085661283E-4i
250                                               0.002849765000334152-0.05377052304356874i         0.004414942199204131-0.053664643341757225i        1.9998045581071444+0.11311657155048405i           1.996738635494851+0.11306834430367252i            -6.9236839326067424E-6+1.306387227396006E-4i         -1.0768297674069936E-5+1.3083264373192963E-4i        -1.0584603995195273E-5+1.2463586595871684E-4i        1.326130571768455E-5-2.9648797957299765E-4i
280                                               0.0022831138401979262-0.04823297224278042i        0.0038557854985603835-0.04813273774024983i        2.000138178778861+0.11471885969710363i            1.9951324888534505+0.11454446684456873i           -5.546980796357852E-6+1.1718507906381491E-4i         -9.412886794591995E-6+1.1745072690609303E-4i         -9.181584099732068E-6+1.1048564623501451E-4i         1.7891983445953832E-5-3.6109608477243217E-4i
315                                               0.0018151240035286305-0.04312450046260922i        0.0033972665217151233-0.043028723415541904i       2.000301740509999+0.1179320427326985i             1.9927555187540151+0.11758841157292227i           -4.409980629383154E-6+1.0477392008892261E-4i         -8.302990945028031E-6+1.0511962606351801E-4i         -8.008825769045421E-6+9.724722885740697E-5i          2.3284811746331038E-5-4.330964435358084E-4i
355                                               0.0014401033571473012-0.03854622306433743i        0.0030342147918264676-0.03845352930008209i        2.0002857336905757+0.1228538738868666i            1.9894712365416627+0.12228077904078609i           -3.498854308401171E-6+9.365091145370674E-5i          -7.426312699034397E-6+9.40855887889105E-5i           -7.0503907932504E-6+8.515973551832766E-5i            2.966439287425349E-5-5.121922129680857E-4i
400                                               0.0011450166323567674-0.03452408976444279i        0.0027542389967970884-0.03443302293775302i        2.0000858577429197+0.1295060057314237i            1.9851308281795215+0.12861995671855997i           -2.781932264923734E-6+8.3879100815355E-5i            -6.753080307023076E-6+8.441289442890577E-5i          -6.272099085894075E-6+7.427766714104782E-5i          3.730151884289518E-5-5.98253387014948E-4i
450                                               9.150960077957798E-4-0.03103968669882679i         0.0025433538098682553-0.030948761480542552i       1.9996974583636227+0.1378643892302383i            1.9795678951879756+0.13655138436985453i           -2.2233356689206373E-6+7.541375303759797E-5i         -6.249738976185778E-6+7.605869633783049E-5i          -5.635057372286749E-6+6.45448994613688E-5i           4.6498421887130185E-5-6.912382781321153E-4i
500                                               7.504810321886309E-4-0.028294506743269252i        0.002400341857129444-0.02820240199661882i         1.9991719046034238+0.14694196975931284i           1.973265900504689+0.1451068369356436i             -1.823403135843687E-6+6.874438914321668E-5i          -5.9127434279063196E-6+6.950349674425177E-5i         -5.1455467114739664E-6+5.656870425032778E-5i         5.652945425512095E-5-7.821410683911481E-4i
560                                               6.079757274570248E-4-0.025701605173145473i        0.0022874484878944836-0.02560672373816324i        1.9983916356256781+0.1585069821539702i            1.9647628536421538+0.1559033493395311i            -1.4771898975881264E-6+6.244503913614864E-5i         -5.653131932996853E-6+6.334748971502697E-5i          -4.676440418263762E-6+4.864225470572482E-5i          6.973282648054718E-5-8.891035697616371E-4i
630                                               4.901577322391559E-4-0.023373769045125194i        0.00220977330947916-0.023274117105825443i         1.997303052327788+0.17265066592800624i            1.9535794645316384+0.16893034040687852i           -1.1909594286016785E-6+5.6789733055567584E-5i        -5.4848451575275785E-6+5.787154281981193E-5i         -4.224185870192405E-6+4.09947061586821E-5i           8.679244464194493E-5-0.0010115639193780312i
710                                               3.95452156630215E-4-0.021371253551608127i         0.0021692439222267853-0.02126441007303553i        1.995848909950835+0.18940201327654688i            1.939167374926266+0.18407878783821788i            -9.608868754578354E-7+5.192487675228007E-5i          -5.414850659050049E-6+5.323291529620529E-5i          -3.7717511479268624E-6+3.37056688222143E-5i          1.0849762045428337E-4-0.0011489919944692082i
800                                               3.203885000676137E-4-0.019722162861454454i        0.0021673678941989015-0.019605157865828157i       1.993966666664729+0.20874339130186503i            1.9209106514206238+0.20114875396002344i           -7.785425887231148E-7+4.791877054485347E-5i          -5.450268761941907E-6+4.95169160477229E-5i           -3.292544461859455E-6+2.6742775132791048E-5i         1.3572397031351414E-4-0.001300822670499426i
900                                               2.6094474723487363E-4-0.018441350800046243i       0.002207452244486781-0.018310413152362117i        1.9915881417475505+0.2306216595066317i            1.898129038991334+0.21985175243479815i            -6.341580989230661E-7+4.4807533545778176E-5i         -5.604551576713862E-6+4.678663868889761E-5i          -2.7509936871638705E-6+1.9987251099024125E-5i        1.6941076034088714E-4-0.001466396705473807i
1000                                              2.1692937728110188E-4-0.017609360054684133i       0.002286731831116249-0.017461358457736113i        1.9889225078803845+0.2527331417132224i            1.872760105451556+0.238025397212029i              -5.272678187813483E-7+4.278682611747504E-5i          -5.871263277441501E-6+4.5229795780297415E-5i         -2.161962362857406E-6+1.3834377743078316E-5i         2.0662136106124794E-4-0.0016288418311383624i
1120                                              1.759382353499582E-4-0.017102178724747077i        0.0024346549855339687-0.016928611407605914i       1.9853639102284013+0.27938806325710475i           1.8389556646988783+0.25884085765104875i           -4.27752663905407E-7+4.1555564282007396E-5i          -6.350870142498018E-6+4.4707977887013285E-5i         -1.3428465366588323E-6+6.776380265701017E-6i         2.557468703793524E-4-0.0018197197829366808i
1250                                              1.3833753523648294E-4-0.017113951042936115i       0.002671973940146064-0.016904275221922182i        1.9810940994276263+0.30820161062416085i           1.7982587147613802+0.27981999639008487i           -3.365129908539828E-7+4.158551658529452E-5i          -7.114160392535177E-6+4.578374162325301E-5i          -2.4033416178974503E-7-1.0302570238515885E-6i        3.141647942324534E-4-0.0020215181633830874i
1400                                              9.338947126460322E-5-0.017929186720212886i        0.0030852354396529997-0.017661511985652027i       1.975689692408798+0.3410357578716768i             1.7460962452155573+0.3014806372198368i            -2.2750501054747112E-7+4.3568373566730366E-5i        -8.451957360286542E-6+4.9556928976047154E-5i         1.4761108127770972E-6-1.1197622523779645E-5i         3.8768755810698663E-4-0.0022479745595997878i
1600                                              -4.381220233364201E-6-0.02102938420250929i        0.004051954626881616-0.020634668023520625i        1.9679055263641616+0.3830977253441017i            1.6677910562160392+0.32479315077157705i           9.569759097913793E-9+5.1105489979837316E-5i          -1.1635215053594323E-5+6.143446709327613E-5i         5.162183093928956E-6-2.9955980121979227E-5i          4.9404700449974E-4-0.002540206328239402i
1800                                              -3.2888625339805896E-4-0.02968035041339937i       0.006213958059713678-0.029023532299867007i        1.960238122602005+0.41960544621539103i            1.5781823775761359+0.3380897175304562i            7.969439590680035E-7+7.213522264523935E-5i           -1.8893224372613744E-5+9.308129041916754E-5i         1.2902734878138334E-5-6.701263017088549E-5i          6.043528367195212E-4-0.002827413861027702i
2000                                              -0.00384571184796722-0.07041461363177644i         0.013810283779184751-0.0691520997618209i          1.9570433844812396+0.42368594563254686i           1.462611461355949+0.31830195475216766i            9.339071138338726E-6+1.7115350799083452E-4i          -4.4277163889951696E-5+2.4151305545901184E-4i        3.864522145765372E-5-2.195073190191212E-4i           6.800625242817347E-4-0.0031628768802575676i
2240                                              -0.005054069926200785+0.06615768901871273i        -0.02355893161189095+0.06201437646664169i         1.9057506670418132+0.6048971019837173i            1.4026616106759584+0.44687117859651687i           1.2297502995287587E-5-1.6082316468826784E-4i         8.335084028796138E-5-2.3280160597266282E-4i          -9.050649580344498E-5+2.579433010821286E-4i          9.955985595286228E-4-0.003148971012224143i
2500                                              -4.153723402508244E-4+0.03355872636956769i        -0.009391770617414337+0.03216733875062594i        1.9076167995146125+0.6044069113221581i            1.2351623988139386+0.391787940833532i             1.0088271974006435E-6-8.155418394134822E-5i          1.7568953951303603E-5-4.7658815235207964E-5i         -4.412967689525555E-5+1.3655709590976197E-4i         0.001122485128626867-0.0035457651673068153i
2800                                              3.3086675349148207E-4-0.01510898629220529i        9.559218412283954E-4-0.01572221748251029i         1.8844941851196757+0.6837650392448397i            1.0691046519737852+0.3879903440286235i            -7.812046783390862E-7+3.665160590196824E-5i          4.9530046161787726E-5-1.3687710009069304E-4i         -4.14141131333183E-6+1.4718228131498135E-5i          0.0013693862949244742-0.003774763788688906i
3150                                              -0.004541962804186692+0.07382705737193329i        -0.029874238330779575+0.06806421084841065i        1.846273830141174+0.8012064204284709i             0.8798440257682537+0.3844338536155345i            1.1035499260018576E-5-1.7946581072594668E-4i         4.4904696608296575E-5-1.3010311194374682E-4i         1.1354290643304295E-4-2.7443695408356614E-4i         0.0016982479762294056-0.003921313888608881i
3550                                              -2.322148151267124E-4+0.004727429832933262i       5.553305577262375E-4+0.0055276397750203925i       1.8032942151985651+0.876221753922095i             0.626877561365284+0.3046091324889717i             5.492356931546796E-7-1.1457436579752595E-5i          -3.664862602664184E-5+7.574524315042934E-5i          -2.5824014206897068E-5+5.3611723827509715E-5i        0.0019982619314890537-0.004112548829021808i
4000                                              -1.1385128831397152E-4+0.003437160325664338i      0.001837903315939091+0.004917161848759293i        1.762750725307806+0.960729756940106i              0.3329696674232553+0.18147937197991568i           2.577623410014126E-7-8.317993253157573E-6i           -5.0926608757176416E-5+9.325365113414179E-5i         2.8199465674053052E-5-5.13567493893915E-5i           0.0022915994572345216-0.004204674974208064i
4500                                              -4.315583186820483E-4+0.03476353248340201i        -0.01862924151705909+0.029339822378511005i        1.7109249744239539+1.043046251079301i             0.006210864329899601+0.0044919484547654796i       1.0549599789892205E-6-8.456465230310958E-5i          5.964587400292698E-5-9.94095169837644E-5i            2.0664918246825552E-5-3.779772597827483E-5i          0.002537809731637224-0.004162773727928701i
5000                                              1.7880596705065004E-4-0.0036493797100759563i      0.004784292421706218-0.0010469024313729707i       1.6229254714284689+1.1708250713988886i            -0.24885080327580403-0.17952108310881681i         -4.44611607376031E-7+8.893995246943951E-6i           -5.366381169073587E-5+7.401659130754453E-5i          -7.20384258507232E-5+9.957166787868229E-5i           0.0028198301517461223-0.003908646846394035i
5600                                              -1.117570205480385E-4+0.001966547757724101i       -0.0042271913629491715-9.94309228678908E-4i       1.5305117813275924+1.2923601223070573i            -0.5386587140017511-0.45484168554106985i          2.740440106496025E-7-4.788582407034264E-6i           6.58893122636218E-5-7.789853344119892E-5i            -5.822345820413502E-5+6.876650272360257E-5i          0.002945786046593926-0.003488607010071566i
6300                                              1.6186848259167681E-4-0.0035758013866178076i      -8.670235012799353E-4-0.005877152819443367i       1.4209946613746898+1.4070253450009937i            -0.815026682387937-0.8070003056744307i            -3.860534897817703E-7+8.69693439756483E-6i           6.44541684428848E-5-6.53487551779707E-5i             -7.66166943029174E-5+7.76207775438673E-5i            0.0028150397203249274-0.002842999407493172i
7100                                              4.875792613897662E-4-0.007562751596016957i        0.00695382452189692-0.003453192016742464i         1.2679989128299765+1.5528747351293852i            -0.9768395086047965-1.1962836278810993i           -1.183893089204232E-6+1.8423906792767193E-5i         -4.863482680290275E-5+3.949654355790941E-5i          -3.632281455719572E-5+2.927324139712314E-5i          0.0024095825989146977-0.001967456486123066i
8000                                              5.967428216982127E-4-0.009682206102658703i        0.003723188825433757-0.012068790010179915i        1.0976442378998172+1.6835368563222617i            -1.018772643492499-1.5624668703605649i            -1.4436039232342497E-6+2.36003486229719E-5i          6.422425345178E-5-4.151108613546507E-5i              5.440681753775754E-5-3.49641234430766E-5i            0.0014990449964357902-9.772736988799722E-4i
9000                                              -2.0561508040093995E-4+0.002971455475874575i      -0.002860527006945389+9.352131011515216E-4i       0.8786949122925163+1.80164394465735i              -0.8785675035830417-1.8013598599767084i           4.941757308138929E-7-7.248272897105059E-6i           -1.6720800209783565E-6+6.94003727827741E-7i          4.442625602156104E-7-6.695081833780908E-8i           1.3014627368126253E-4-6.346358299333716E-5i
