% Model:              cav_with_siliconeslab_puretube_rigid_end.mph
% Version:            COMSOL 6.2.0.290
% Date:               Mar 13 2026, 12:29
% Table:              Table 14 - Point Evaluation 2
% freq (Hz)                                       Total acoustic pressure (Pa), Point: 5            Total acoustic pressure (Pa), Point: 6            Total acoustic pressure (Pa), Point: 7            Total acoustic pressure (Pa), Point: 8            Total acoustic velocity, z-component (m/s), Point: 5 Total acoustic velocity, z-component (m/s), Point: 6 Total acoustic velocity, z-component (m/s), Point: 7 Total acoustic velocity, z-component (m/s), Point: 8
100                                               0.01861384632618266+2.2745113078471245E-4i        0.018612153714408178+2.2743044798464307E-4i       2.0049545152439903+0.024499459363361082i          2.003742292394383+0.02448464665603147i            2.7796147968818995E-12-2.2747446681637215E-10i       1.2224817126416615E-8-1.000438496732756E-6i          1.739320731151432E-8-1.4234024110173334E-6i          2.0709196377244346E-6-1.6947719609039188E-4i
112                                               0.01862762190367094+2.5493529026315E-4i           0.01862549706202013+2.549062099475943E-4i         2.004916538311756+0.027439035551133396i           2.0033959860107284+0.027418225463606952i          3.4897958699938585E-12-2.5499252406314464E-10i       1.534712289471954E-8-1.1213841845925645E-6i          2.1831094783214142E-8-1.5951552982737073E-6i         2.5976006145393684E-6-1.8980158477473755E-4i
125                                               0.018644330809222072+2.8478322995187816E-4i       0.018641681611780207+2.8474276472885716E-4i       2.004870547140152+0.030623438078429148i           2.002976614280285+0.030594509160428916i           4.351547695708476E-12-2.848892985443256E-10i         1.9135215609967978E-8-1.2527538577268075E-6i         2.7212872882261457E-8-1.7815859607281126E-6i         3.2353685553307333E-6-2.1181472535752069E-4i
140                                               0.01866592945490872+3.1932962809865233E-4i        0.018662602309623934+3.192727085614286E-4i        2.0048112139290173+0.034297548423638996i          2.00243561105746+0.03425690751243645i             5.46604697901123E-12-3.195094969905882E-10i          2.4033379056099835E-8-1.4048347492667718E-6i         3.416780920940021E-8-1.9972275050591282E-6i          4.058053244657807E-6-2.3720735230407152E-4i
160                                               0.01869861983402353+3.6559231106633874E-4i        0.01869426628296091+3.65507191158642E-4i          2.004721661645646+0.03919598514924596i            2.0016191221244055+0.039135324811540764i          7.154086304911649E-12-3.6590359502171105E-10i        3.145016958085284E-8-1.6085534266045085E-6i          4.469056205270252E-8-2.2857478248608106E-6i          5.299539404909922E-6-2.710507569061547E-4i
180                                               0.01873579843607896+4.1211550602181826E-4i        0.018730277113042156+4.119940581505151E-4i        2.0046201791781493+0.04409393399176888i           2.0006939415039127+0.044007571863599576i          9.075637321011764E-12-4.1260109554511463E-10i        3.988996122367848E-8-1.8134970953252789E-6i          5.6652483221776574E-8-2.5755631394861475E-6i         6.7061176999598476E-6-3.0487683109614827E-4i
200                                               0.018777514733052662+4.58933577561416E-4i         0.018770682547791386+4.5876659490854153E-4i       2.0045067704345416+0.04899133226519644i           1.9996601341936928+0.04887287760595162i           1.1233925425695399E-11-4.59642105748948E-10i         4.9365782586167264E-8-2.019827607183667E-6i          7.006737137344797E-8-2.8668442723581652E-6i          8.27762323644076E-6-3.386834171344122E-4i
224                                               0.018833643120365846+5.155538574470551E-4i        0.018825046265227005+5.153185263536274E-4i        2.004354943357578+0.054867394276131964i           1.9982762807696752+0.054700996414321315i          1.4141521675386322E-11-5.166024194853219E-10i        6.212515565796912E-8-2.269487452307167E-6i           8.810520504654851E-8-3.218561873128728E-6i           1.0380872869087489E-5-3.7922256245617346E-4i
250                                               0.01890204048070719+5.775004849067089E-4i         0.018891291784380652+5.771720876975809E-4i        2.0041711008719734+0.06123200210955614i           1.9966008685902097+0.06100071423256384i           1.769032662865293E-11-5.790181649213572E-10i         7.768874725175565E-8-2.5428131816783577E-6i          1.1006800799857184E-7-3.602611594531151E-6i          1.292668579015833E-5-4.2310048993133946E-4i
280                                               0.01899097314353244+6.49866576034895E-4i          0.018977424209310575+6.49402934734097E-4i         2.003933967317604+0.0685741428887346i             1.9944402014596967+0.06824926848313316i           2.231379571012666E-11-6.520733851076514E-10i         9.794977964110443E-8-2.8623746830244306E-6i          1.385957221409724E-7-4.05016619439395E-6i            1.6208937486206003E-5-4.736718395031072E-4i
315                                               0.019108642320768657+7.356633307622797E-4i        0.019091384302245693+7.349989145690292E-4i        2.0036234746406616+0.07713746974820912i           1.991611789123428+0.07667503204973714i            2.8447005205201427E-11-7.389027438573115E-10i        1.2480009823882374E-7-3.24164646941964E-6i           1.7629154309205394E-7-4.579121863266996E-6i          2.0503993170532608E-5-5.325852944955739E-4i
355                                               0.01926209332971147+8.357869192519062E-4i         0.019239991570608662+8.348279185433963E-4i        2.0032240537892783+0.08692037941199911i           1.9879743922457065+0.08625869288483615i           3.647183784783E-11-8.405538900678136E-10i            1.5988673399471612E-7-3.6848545023250853E-6i         2.25366048896273E-7-5.19393372532803E-6i             2.6024902586137768E-5-5.997869684132016E-4i
400                                               0.019459971288829692+9.514739479543888E-4i        0.019431612349126805+9.500873687082827E-4i        2.002717956703564+0.09792069744715863i            1.983367258287378+0.0969745662764298i             4.686355687964403E-11-9.584744477888987E-10i         2.052486036946123E-7-4.197836360685114E-6i           2.8851067877349297E-7-5.900749608262869E-6i          3.3013426872237784E-5-6.752053910614728E-4i
450                                               0.01971292039921757+0.001084415650505332i         0.01967654511990773+0.0010824146318142277i        2.0020852861528016+0.11013551386514556i           1.9776105067182936+0.1087891464409313i            6.021701116800329E-11-1.0946477495069107E-9i         2.6342206647048767E-7-4.7885865768474495E-6i         3.690085692447295E-7-6.707978208161722E-6i           4.17390137328121E-5-7.587476766099621E-4i
500                                               0.0200030125882454+0.0012227512238821307i         0.019957420094332025+0.0012199642297987898i       2.001378747379313+0.12234098748944505i            1.9711848798598175+0.12049528608319017i           7.562453352033343E-11-1.2371433125194505E-9i         3.3038800421367306E-7-5.4048242015315635E-6i         4.610315491095627E-7-7.542024657115188E-6i           5.1469400580481144E-5-8.419889898019398E-4i
560                                               0.020404188948089264+0.0013971125010106124i       0.02034580948301031+0.0013931151512178016i        2.0004336953287356+0.13697338964548017i           1.9625951001575008+0.13438251115139854i           9.708985528529335E-11-1.4179529208391442E-9i         4.234203652232598E-7-6.183860734359286E-6i           5.877926836102484E-7-8.584443250162988E-6i           6.44618517436318E-5-9.41435855765689E-4i
630                                               0.020953022235320043+0.001614259575329598i        0.020877077458840588+0.001608408649327068i        1.99919766945715+0.15402188498887567i             1.9513683797900407+0.15033702807612276i           1.2673776034902332E-10-1.6450508634859992E-9i        5.514499739844247E-7-7.1577977564149295E-6i          7.60315279169948E-7-9.868860741596426E-6i            8.141608419484164E-5-0.001056777391076091i
710                                               0.021701463994780814+0.0018845354670233622i       0.02160144011719638+0.0018758494841374898i        1.9976101315971366+0.1734706535552341i            1.9369597695190053+0.16820383107485487i           1.6765898833494092E-10-1.9306856056196317E-9i        7.27355784484107E-7-8.375902520586782E-6i            9.940254160423963E-7-1.144675022247148E-5i           1.0312969866340165E-4-0.0011875952889267055i
800                                               0.02272571584867102+0.002224015348914578i         0.022592524917764156+0.0022109808343300603i       1.9956030765109092+0.1952964607168124i            1.9187562113323395+0.1877759668053175i            2.2449720444628267E-10-2.293985819739578E-9i         9.703195902722474E-7-9.91504276339122E-6i            1.3111904687932713E-6-1.3398172828072852E-5i         1.3048530316302895E-4-0.0013333414824272189i
900                                               0.024142659826395612+0.002658397187721335i        0.0239632224410516+0.0026386389736719838i         1.9931021335968404+0.21946451405500633i           1.896081550809999+0.20878138111571776i            3.0453787230291197E-10-2.7657094601839563E-9i        1.3101883843890136E-6-1.1898685651225317E-5i         1.7454160818798678E-6-1.5851275691830304E-5i         1.644321348988246E-4-0.0014933167684378125i
1000                                              0.025937502279512005+0.0031735361269547816i       0.025698962796535534+0.0031443500604332996i       1.990321787245318+0.2435222184472832i             1.8708625473977882+0.22890599945781023i           4.079349689845298E-10-3.3340771178811654E-9i         1.7460186003642598E-6-1.4270315388047876E-5i         2.288886030480115E-6-1.870720365475379E-5i           2.0200728539596132E-4-0.0016510177341911595i
1120                                              0.028777335842246208+0.0039429277549265585i       0.02844430792367148+0.003897297922112571i         1.9866289879553793+0.2721980456527041i            1.8372897735987894+0.2517363275695059i            5.752346414677221E-10-4.198332174083003E-9i          2.445307720870739E-6-1.7847002505487104E-5i          3.1363136374866625E-6-2.2890287740968516E-5i         2.516960955082331E-4-0.0018369961412378769i
1250                                              0.03312113698852229+0.005061592250745512i         0.032641814117512005+0.004988341838769877i        1.9822171198849912+0.30292362296565567i           1.7969029403723837+0.27460379761347314i           8.376360871660848E-10-5.481172367722893E-9i          3.5316860031125967E-6-2.311001165538563E-5i          4.409287726002129E-6-2.885270396361099E-5i           3.108680836372048E-4-0.0020342026528288896i
1400                                              0.04099502365733785+0.007002756318621101i         0.04024686022141383+0.006874955289109069i         1.9766722945826753+0.3376545045182435i            1.7451553700066642+0.2981068603942946i            1.325799912541694E-9-7.761400840777724E-9i           5.531785618146416E-6-3.238377461175177E-5i           6.665074175696146E-6-3.9018189564093784E-5i          3.853997107367381E-4-0.0022561787874745215i
1600                                              0.06325083717551522+0.012245490355716667i         0.061730182424242885+0.011951088511842126i        1.9689503640576458+0.38119278369466636i           1.6672516315767796+0.32278329721310195i           2.737760652554691E-9-1.414117754825276E-8i           1.1247368041899981E-5-5.809530071935273E-5i          1.2819438607506424E-5-6.621541485807704E-5i          4.927353321905843E-4-0.0025450938560308634i
1800                                              0.15807863667779218+0.032872926918120736i         0.15321760541040033+0.03186206087728197i          1.9642421690004928+0.40847005406971254i           1.5736979877786257+0.32725521949433267i           8.59035116789647E-9-4.130909926106767E-8i            3.469064612584134E-5-1.6681964641309868E-4i          3.701741294489717E-5-1.7800855355065324E-4i          5.934482311593965E-4-0.0028537613203219007i
2000                                              -0.2510212618285379-0.07127240023394359i          -0.24136652193086383-0.06853113249777994i         1.9251568715214877+0.5466092794718286i            1.520079493476511+0.4315957670561562i             -2.163274776213375E-8+7.619049760324379E-8i          -8.574416798229168E-5+3.019908010773384E-4i          -8.464104676021887E-5+2.9810561017309847E-4i         8.198085929899825E-4-0.0028873643486424854i
2240                                              -0.057795386854415556-0.016858612116737035i       -0.054951113332986384-0.016028952404060215i       1.923999815049663+0.561220684901749i              1.3835982353267737+0.403588370010877i             -6.1011699728780165E-9+2.091628162872285E-8i         -2.360569671059323E-5+8.092601952697322E-5i          -2.082474341550168E-5+7.139224115888286E-5i          9.49241632461837E-4-0.003254229173107276i
2500                                              -0.03054163687998211-0.009873134053113415i        -0.028615317109838445-0.0092504165021672i         1.9073277809498228+0.6165780484702343i            1.2418083507913997+0.40143690935039217i           -4.328627014416313E-9+1.339021163376587E-8i          -1.62850611468605E-5+5.037634670410173E-5i           -1.2345388687434148E-5+3.818933039968031E-5i         0.0011386467783132837-0.0035222996316906837i
2800                                              -0.01936997454056102-0.007032467349579297i        -0.017764761759247648-0.0064496784331522115i      1.8843017763496788+0.6841150302590805i            1.0694461226827303+0.38827335183743933i           -3.894211307307005E-9+1.0726075234603018E-8i         -1.414475078495228E-5+3.895979163038607E-5i          -8.516757823408468E-6+2.3458250711541444E-5i         0.0013702167120189176-0.0037740755140758565i
3150                                              -0.013365393489518816-0.00550261488493274i        -0.011838009207369632-0.004873781361059514i       1.8537705395874973+0.7632087579301959i            0.8581876737419192+0.35332115521134333i           -4.059215345293591E-9+9.859496163795234E-9i          -1.4448527216673948E-5+3.509426983953485E-5i         -5.814547564666637E-6+1.4123052001672977E-5i         0.0016455816813035389-0.003996980917285455i
3550                                              -0.009746614048027017-0.004578122854906497i       -0.008040064814819238-0.003776532476024796i       1.8146349778901156+0.8523597861426822i            0.6083715008403798+0.28576072249531587i           -5.331558609131045E-9+1.1350644288951108E-8i         -1.8263527340211914E-5+3.888221390779408E-5i         -2.5211214594477928E-6+5.367352212257633E-6i         0.001953254972967646-0.004158390450093979i
4000                                              -0.008654317582052628-0.0046494044621034555i      -0.005154811696434694-0.0027693465458685225i      1.767105324064623+0.9493512689840611i             0.3236186064427079+0.1738593226473637i            -1.3921279097383418E-8+2.591281774665481E-8i         -4.678436640260046E-5+8.708357554680118E-5i          1.7861077123792986E-5-3.32462867119374E-5i           0.002268856537214585-0.0042232086241130225i
4500                                              -0.06380368468073186-0.04125482928099945i         -0.06980105764576237-0.0451326711179548i          1.6962162350463978+1.0967565831136328i            0.05101805836543409+0.03298777019659288i          6.024623290225796E-8-9.317531339493841E-8i           2.1126942009143022E-4-3.2674398845233317E-4i         1.8926624774106036E-4-2.927144337290154E-4i          0.0026467920615752816-0.004093462245654767i
5000                                              -0.008625070862027314-0.006134470094126424i       -0.010507900570474907-0.007473608371778666i       1.6363417115434316+1.163826877924954i             -0.26092639462652983-0.1855805233630745i          1.3848173178595342E-8-1.9470544829727485E-8i         5.0436960356683394E-5-7.09144148503065E-5i           4.44553162329836E-5-6.250421744992665E-5i            0.002790457652627457-0.003923386147801917i
5600                                              -0.00899369427111602-0.007441274010231863i        -0.007594672408846268-0.006283740219374885i       1.5446479485177038+1.278023055684386i             -0.5576431363542951-0.4613871955660429i           -3.2140498149313223E-9+3.884574250146127E-9i         -1.1969040939676177E-6+1.446605712704442E-6i         1.8801357506686972E-6-2.2723751479428224E-6i         0.0028996053890816536-0.003504529512086418i
6300                                              -0.015207974719416324-0.014842953233292419i       -0.013410679692975679-0.013088796843893016i       1.4333714394762802+1.398967688637761i             -0.829272276469182-0.809368100900513i             -7.416504602467476E-9+7.598893072692605E-9i          2.1790060944996902E-5-2.2325927379653343E-5i         -1.271661737268728E-5+1.3029347494465111E-5i         0.0027803835932799464-0.0028487594573255804i
7100                                              0.0016913319187684972+0.0020420570679633024i      0.0030064536998972158+0.00362989071468039i        1.2793311890069914+1.5446212938968327i            -0.9908419272053984-1.1963090971098638i           -2.893612102453694E-9+2.3966316055268825E-9i         -4.096811519185345E-5+3.3931804337309496E-5i         2.5000146926300863E-5-2.070634907012115E-5i          0.0023755146394092716-0.0019675178507826798i
8000                                              -0.02161185551252536-0.03179882148630256i         -0.0023512249016668404-0.0034594984627285066i     1.1306805670608426+1.6636382511978531i            -1.0562244593470775-1.5540865064583165i           -5.51317044179459E-8+3.746989273026796E-8i           -2.3829663983567406E-4+1.6195671124063254E-4i        2.075967249281333E-4-1.4109172020583543E-4i          0.0014079138803949293-9.568792158539953E-4i
9000                                              0.0055739858199471675+0.011494250151975454i       0.001858484471488318+0.003832425504638483i        0.8742253974676728+1.8027612075624568i            -0.8744452453332192-1.8032145610787649i           1.2843483726779818E-8-6.228278941678479E-9i          4.451950386564193E-5-2.158914935531387E-5i           -3.281012127804087E-5+1.5910837882997578E-5i         1.4017831616024983E-4-6.797763593282176E-5i
