% Model:              cav_with_airslab_puretube_rigid_end.mph
% Version:            COMSOL 6.2.0.290
% Date:               Mar 13 2026, 12:32
% Table:              Table 14 - Point Evaluation 2
% freq (Hz)                                       Total acoustic pressure (Pa), Point: 5            Total acoustic pressure (Pa), Point: 6            Total acoustic pressure (Pa), Point: 7            Total acoustic pressure (Pa), Point: 8            Total acoustic velocity, z-component (m/s), Point: 5 Total acoustic velocity, z-component (m/s), Point: 6 Total acoustic velocity, z-component (m/s), Point: 7 Total acoustic velocity, z-component (m/s), Point: 8
100                                               1.0029419311460273-0.011332262432367837i          1.0030057621001414+3.4891510229981027E-4i         1.0029288318861092+0.012394976277259653i          1.0018982748474685+0.04705727154757915i           -0.0024366955090154223+2.7532266901469865E-5i        -0.0024367633921302603-9.011414551970363E-7i         -0.002436579011241305-3.022167993337075E-5i          -0.0024341049031474937-1.1459051739472288E-4i
112                                               1.0029256446717962-0.012692065277607549i          1.0030057140056814+3.9078518698245653E-4i         1.002909213065862+0.013882284062356988i           1.0016165471119955+0.052699213830853964i          -0.0024366563368131812+3.083597655883129E-5i         -0.0024367638220875055-1.009277910688921E-6i         -0.0024365320583487077-3.384806504059577E-5i         -0.0024334212849559276-1.283293567625984E-4i
125                                               1.0029059205053437-0.014165158639096448i          1.0030056557791038+4.361445507716797E-4i          1.0028854532028235+0.015493499811610597i          1.0012753862828792+0.05880942320056703i           -0.002436608896268991+3.441493293707079E-5i          -0.0024367643428457497-1.1264255416391367E-6i        -0.0024364751948354616-3.7776565694412793E-5i        -0.002432593450881152-1.4320847894066531E-4i
140                                               1.0028804732084107-0.015864843598233355i          1.0030055806109592+4.884824316669467E-4i          1.0028547992821142+0.017352545245740782i          1.0008352895148032+0.06585692583453756i           -0.0024365476904392924+3.854440775198879E-5i         -0.002436765014589895-1.2615955989071833E-6i         -0.0024364018319898316-4.2309330758997086E-5i        -0.002431525546222925-1.603700178270749E-4i
160                                               1.002842062670325-0.01813101854046357i            1.003005467222675+5.582665547724861E-4i           1.0028085298876013+0.019831179181459085i          1.000171114668448+0.0752484507158787i             -0.002436455305391987+4.4050204648717785E-5i         -0.0024367660287039987-1.4418217933019373E-6i        -0.0024362910971014807-4.8352791480941836E-5i        -0.002429913910231724-1.8323952270095486E-4i
180                                               1.002798531297942-0.0203971009691927i             1.003005338700389+6.280510463054658E-4i           1.0027560920994552+0.022309692681496764i          0.999418560692565+0.08463333563107224i            -0.0024363506036580674+4.9555782719738784E-5i        -0.002436767177971134-1.6220472943431116E-6i         -0.002436165599421217-5.4395960462503885E-5i         -0.002428087818938762-2.0609283580680853E-4i
200                                               1.0027498793340917-0.022663079322507607i          1.0030051950670986+6.978359519211473E-4i          1.0026974862686693+0.024788070693612118i          0.9985776941512841+0.09401075245190642i           -0.0024362335858022577+5.5061114619703736E-5i        -0.002436768462437937-1.8022720107113688E-6i         -0.002436025339716413-6.0438801236338805E-5i         -0.002426047433394272-2.2892793774514052E-4i
224                                               1.0026847381280184-0.02538209968725015i           1.0030050027441006+7.815784498270946E-4i          1.0026190179576824+0.027761924270962624i          0.9974521869324847+0.10525262972177105i           -0.002436076907859593+6.166714944282727E-5i          -0.0024367701822070307-2.0185405113832023E-6i        -0.002435837543283855-6.768972559533114E-5i          -0.0024233163569000755-2.5630318039009906E-4i
250                                               1.0026058484958018-0.02832749400202405i           1.0030047698560167+8.723003276435987E-4i          1.0025239889881374+0.030983324188337717i          0.9960896674248881+0.11741619312554638i           -0.0024358871619687356+6.882318789095216E-5i         -0.002436772264991906-2.2528297951365862E-6i         -0.0024356101119806448-7.554422800028214E-5i         -0.002420010159106343-2.8592278137803425E-4i
280                                               1.0025040708479267-0.03172572075199085i           1.0030044694054094+9.769806301666046E-4i          1.0024013904095865+0.034699926839651785i          0.9943327062911997+0.13142920076697198i           -0.0024356423653918748+7.707943354497504E-5i         -0.0024367749520361717-2.5231612838715843E-6i        -0.0024353166977690733-8.460615309364507E-5i         -0.0024157468294643443-3.2004590577573136E-4i
315                                               1.0023707729313631-0.0356898555445148i            1.003004075936968+0.001099109490525404i           1.0022408248442578+0.03903536041860647i           0.9920330873156511+0.1477445347840692i            -0.0024353217554990174+8.67106247929979E-5i          -0.0024367784712859275-2.838544529176215E-6i         -0.0024349324157522294-9.51769387125924E-5i          -0.002410166709995115-3.5977532002660223E-4i
355                                               1.0021992385520742-0.04021960880024387i           1.0030035696575654+0.0012386880587556875i         1.0020342035511558+0.043989247949554965i          0.9890762727646174+0.16634148583675912i           -0.002434909177993594+9.771607667563378E-5i          -0.0024367830000989084-3.198977350906484E-6i         -0.0024344379055717814-1.0725567169424222E-4i        -0.0024029918602880215-4.0506052434480363E-4i
400                                               1.0019817943405058-0.04531459540929476i           1.00300292794528+0.0013957178635836873i           1.0017722856572557+0.04956108809935842i           0.9853320504625956+0.18719255142750582i           -0.0024343861761025537+1.1009487826982956E-4i        -0.002436788741071774-3.6044568466465092E-6i         -0.002433811048487099-1.2084113764894662E-4i         -0.0023939062990239015-4.5583445410762413E-4i
450                                               1.0017098111507423-0.05097431308611118i           1.0030021254033148+0.0015702008992833974i         1.0014446802175165+0.05575022700704762i           0.9806549380654448+0.21026192567776414i           -0.0024337319938219325+1.238458414816118E-4i         -0.0024367959221149173-4.054979233259164E-6i         -0.0024330269718603886-1.3593175273127938E-4i        -0.002382556982152947-5.120097974699082E-4i
500                                               1.0014058589755104-0.05663240518014548i           1.0030012286910035+0.0017446903879649043i         1.0010785761486458+0.061937249763504953i          0.9754362625836099+0.23321534345751918i           -0.002433000916173652+1.3759295958812122E-4i         -0.0024368039473862567-4.505489376012808E-6i         -0.002432150744709284-1.510172418511947E-4i          -0.0023698934662217098-5.679023829458854E-4i
560                                               1.0009989309932716-0.06341971586944067i           1.0030000284397502+0.001954087297939983i          1.000588453437025+0.06935855306899248i            0.9684630702580261+0.2605885637009653i            -0.0024320221528151753+1.5408382481894647E-4i        -0.002436814691791262-5.046083480379953E-6i          -0.0024309776776566374-1.691122615949807E-4i         -0.0023529723799699887-6.345567972408461E-4i
630                                               1.0004660408061765-0.0713345422371035i            1.0029984571123742+0.0021983983781079046i         0.9999466395743749+0.07801192019892444i           0.9593547399070024+0.29226092029815326i           -0.0024307404115127026+1.7331440907260922E-4i        -0.002436828762529185-5.676748734650834E-6i          -0.0024294415233340667-1.9021144261009948E-4i        -0.0023308700127719385-7.11678804384808E-4i
710                                               0.9997803952189886-0.08037456956159564i           1.0029964361140506+0.0024776327944384005i         0.9991208860571613+0.08789433812143128i           0.9476744009555514+0.32806910610671497i           -0.0024290912408712452+1.9527923701642848E-4i        -0.002436846867481109-6.397467745297496E-6i          -0.0024274650715449403-2.1430748692940002E-4i        -0.0023025260937182177-7.98870196733308E-4i
800                                               0.9989114102196116-0.09053672030867857i           1.0029938759241246+0.002791802716952239i          0.998074392144178+0.09900180101720425i            0.9329336181845554+0.36779722394568076i           -0.002427001067349664+2.1997102882001488E-4i         -0.0024368698148724737-7.2082174095169245E-6i        -0.0024249602008948644-2.4139069226890942E-4i        -0.002266755128035679-8.956045408021839E-4i
900                                               0.9978247326621213-0.10181698188765691i           1.0029906762868823+0.0031409239866477616i         0.9967658370784817+0.1113290862240362i            0.9145986911140933+0.4111658266537673i            -0.0024243872454866823+2.4738029261908994E-4i        -0.0024368985128462224-8.108967650614748E-6i         -0.00242182794884248-2.714484096777338E-4i           -0.002222261641535731-0.0010012004617393324i
1000                                              0.9966106748576201-0.11308425567597456i           1.0029871040992333+0.0034900965621657847i         0.9953040245277878+0.12363946663517193i           0.8942438031901256+0.4536275256140852i            -0.002421466990290959+2.747588337469706E-4i          -0.0024369305773487286-9.009620491797179E-6i         -0.0024183286960250718-3.0146518407851415E-4i        -0.0021728653472887906-0.001104585063843226i
1120                                              0.9949858823520205-0.12658581679448774i           1.0029823275202085+0.003909179248637791i          0.993347874772906+0.1383869761924654i             0.86721523775974+0.5032527250820156i              -0.00241755869883289+3.075677416149598E-4i           -0.002436973493983441-1.0090260373843242E-5i         -0.0024136458585411235-3.3742489520590757E-4i        -0.0021072721155403983-0.0012254065287411442i
1250                                              0.9930192960307475-0.1411861910634322i            1.0029765524447802+0.004363289083367578i          0.9909805585316075+0.15432919471393325i           0.8348251873313545+0.555204873176645i             -0.0024128281484929277+3.4304846968147013E-4i        -0.0024370254450580844-1.1260756884636882E-5i        -0.002407978342115407-3.762983041563868E-4i          -0.0020286651894644283-0.0013518870135121688i
1400                                              0.990483975510148-0.15799475621144154i            1.002969117387984+0.004887411264032413i           0.9879291546621801+0.17267458425738172i           0.793589158096404+0.6125662759516571i             -0.002406729359668701+3.838978270849529E-4i          -0.0024370924306872997-1.261104630878084E-5i         -0.0024006724512403922-4.21032423453416E-4i          -0.0019285862818997205-0.0014915274697148853i
1600                                              0.9866611315301618-0.18033480649750294i           1.0029579280935723+0.005586520174685039i          0.9833292873274826+0.19704223636955895i           0.7325136240858706+0.6842730194552329i            -0.0023975330334089482+4.381947922339703E-4i         -0.0024371934559783434-1.4410901908451497E-5i        -0.0023896577946064326-4.804530529702119E-4i         -0.0017803493572213713-0.0016660730375934278i
1800                                              0.9823344677357664-0.20258284458871326i           1.0029452952156581+0.006285987745823241i          0.9781248578017977+0.2212901777618496i            0.6649714369798186+0.749945528129343i             -0.0023871241805079654+4.922740665051638E-4i         -0.0024373078275108555-1.621007694237441E-5i         -0.0023771935615166306-5.395838574962442E-4i         -0.001616405781065883-0.0018259081213426185i
2000                                              0.9775061872802341-0.22472751826044562i           1.0029312364515046+0.006985856277698846i          0.9723191346777599+0.2454036617440628i            0.5915592940474285+0.809004505339917i             -0.0023755079051461774+5.461087762886319E-4i         -0.002437435498868139-1.800849184376116E-5i          -0.0023632868759940273-5.983891819418408E-4i         -0.0014382002128079977-0.00196962171443161i
2240                                              0.9710535962607846-0.25114877954006404i           1.002912511456555+0.007826286146435258i           0.9645637178636651+0.2741417091163988i            0.49663282341675935+0.870416193763193i            -0.002359982638893683+6.103499409568409E-4i          -0.0024376061870058988-2.0165477436454427E-5i        -0.002344706070364381-6.68476033961553E-4i           -0.0012077468876752991-0.0021190221749571914i
2500                                              0.9632576724861299-0.27956297259861207i           1.002889984265853+0.008737551966018022i           0.9551990066000795+0.3050030592853675i            0.38671578961214287+0.924454251754228i            -0.0023412235747005484+6.794503281123043E-4i         -0.0024378125113813935-2.2500701025533424E-5i        -0.0023222636442119535-7.4374640565021E-4i           -9.408677612653094E-4-0.002250429494722374i
2800                                              0.9532298735628867-0.3120474786621385i            1.0028611613902148+0.009790156543366296i          0.9431617939559117+0.3402209475984434i            0.25283598068417457+0.9696513086701848i           -0.0023170913262205084+7.584689198829786E-4i         -0.0024380780692406607-2.5193037909773554E-5i        -0.002293406987610271-8.296500750779939E-4i          -6.157556701889646E-4-0.0023602510177969873i
3150                                              0.940147397246672-0.349490698774716i              1.0028238166423704+0.011019907474383056i          0.9274722189195327+0.3807168657395404i            0.09050125008031278+0.9980403616879611i           -0.002285603296629546+8.495793756457587E-4i          -0.002438424807331988-2.8330895312883403E-5i         -0.002255778386406843-9.284402794059168E-4i          -2.2146179117807558E-4-0.002429073151002381i
3550                                              0.9233969449988263-0.39161087352910734i           1.0027764258988445+0.012427830946268995i          0.9074076552789916+0.42612525304021237i           -0.09774447362519795+0.9975098173143615i          -0.0022452792176303627+9.521144303050602E-4i         -0.002438869249612722-3.191239283532562E-5i          -0.0022076305786571954-0.0010392338214806791i        2.3589422536199488E-4-0.002427407174120003i
4000                                              0.9022999703291124-0.43803650365161145i           1.0027174133625663+0.014015245465722132i          0.8821750886951142+0.47596467434288176i           -0.30506029595304557+0.9549802309725904i          -0.0021944792276928343+0.0010651939561086177i        -0.002439429836430261-3.5935159709189207E-5i         -0.002147039237415534-0.0011608684010729771i         7.397693126469415E-4-0.002323427112562837i
4500                                              0.8761255873775787-0.4882884018818345i            1.002645241758684+0.015783794249960844i           0.8509298902876767+0.5296150875340955i            -0.5190641406861323+0.85799238951112i             -0.002131433842908267+0.0011876821315596098i         -0.0024401266872777416-4.03963145987469E-5i          -0.0020719449468011913-0.001291848397576948i         0.0012601621958326314-0.002086845886533879i
5000                                              0.8471548076899869-0.5369831850826675i            1.0025667025539424+0.017557753101242565i          0.8164248516591521+0.5812496005156025i            -0.7045185583311624+0.7138640357327375i           -0.00206162749146779+0.0013064801500872988i          -0.002440899857372626-4.4847879565381E-5i            -0.001988933352766002-0.0014179638398815844i         0.0017114402519456625-0.0017355896515202788i
5600                                              0.8088290963616143-0.5931431383821645i            1.002464959085952+0.0196941361784219i             0.7709057460243137+0.6402718450759519i            -0.8751789107522285+0.48997731219945817i          -0.0019692382883242493+0.0014436465537225884i        -0.0024419259694336633-5.017654305796039E-5i         -0.0018792927126430685-0.0015622152361600987i        0.002127173074930727-0.001190282344518103i
6300                                              0.7594301033482077-0.6552030990839395i            1.0023374092414334+0.02219768847530347i           0.7124533144752853+0.7046677700544935i            -0.9862559609769316+0.18126643808536505i          -0.0018500836618133602+0.001595465158987364i         -0.0024432546085564116-5.637470088954882E-5i         -0.001738282561568702-0.0017197551856908422i         0.002398495526549296-4.3878265962906846E-4i
7100                                              0.6971753201780843-0.7210928972362997i            1.0021823381621258+0.02507411548110207i           0.6391466638407863+0.7717851319031817i            -0.9835238055866375-0.19335637852411197i          -0.0016998009083083593+0.001757014563788119i         -0.002444939906534059-6.343403166276025E-5i          -0.001561097098934282-0.0018842079654438919i         0.0023933620597241783+4.7267023989465163E-4i
8000                                              0.620355365028829-0.7881579174321336i             1.0019995351042739+0.028329827339196787i          0.5492548384192466+0.8382440434771955i            -0.8170796110227482-0.5801118105949337i           -0.00151416760711635+0.0019219733199813426i          -0.0024470387031336194-7.134678637237484E-5i         -0.0013433141668870072-0.0020474569901020264i        0.0019898913368244786+0.0014130819934439287i
9000                                              0.5275102307514391-0.8530974074125911i            1.0017909048246134+0.03197140289190575i           0.44147778891724276+0.8998790069716951i           -0.4655681671398439-0.8876236660604365i           -0.0012895141748916709+0.002082463608586897i         -0.002449608708308261-8.010794382967485E-5i          -0.0010814716635306786-0.0021995036234814585i        0.0011353249064856674+0.002160236079966093i
