% Model:              cav_with_siliconeslab_puretube_rigid_end.mph
% Version:            COMSOL 6.2.0.290
% Date:               Mar 15 2026, 10:51
% Table:              Table 14 - Point Evaluation 2
% freq (Hz)                                       Total acoustic pressure (Pa), Point: 5            Total acoustic pressure (Pa), Point: 6            Total acoustic pressure (Pa), Point: 7            Total acoustic pressure (Pa), Point: 8            Total acoustic velocity, z-component (m/s), Point: 5 Total acoustic velocity, z-component (m/s), Point: 6 Total acoustic velocity, z-component (m/s), Point: 7 Total acoustic velocity, z-component (m/s), Point: 8
100                                               2.4555575292202843-0.007405380631690513i          2.455390648294206-0.007404877358294115i           2.004856873269214-0.00604617406920775i            2.002588380224599-0.006039332830810563i           -8.119370885851815E-14-2.692600379636517E-11i        -2.1004346248474187E-7-6.96485206398736E-5i          -2.2648748506374616E-7-7.510121044354857E-5i         -7.349479035560624E-7-2.4370210628643304E-4i
112                                               2.603879923676105-0.011420611134292897i           2.603657932718807-0.0114196374824837i             2.004750339287004-0.008792830206246662i           2.001826601561464-0.008780006699556538i           -1.705293596483055E-13-3.887955019314348E-11i        -3.6285070745403747E-7-8.272934445276696E-5i         -3.9054209556990794E-7-8.904293387409088E-5i         -1.2185377378477223E-6-2.7782453268337416E-4i
125                                               2.8090523810659254-0.01812403889339511i           2.8087540596343006-0.018122114120021026i          2.0045798253029696-0.012933572532712947i          2.0008033517863306-0.012909206681311904i          -3.6707310422849745E-13-5.6892492281854595E-11i      -6.427719472419829E-7-9.96234933901499E-5i           -6.902910806485243E-7-1.069885037823601E-4i          -2.0491741811907468E-6-3.176023647986579E-4i
140                                               3.126222166653182-0.031020189669932297i           3.125805667154638-0.031016056920321583i           2.0042602078834153-0.019887432332744624i          1.9992620095005516-0.019837837309237633i          -8.646642808178994E-13-8.714062182291916E-11i        -1.2324136783921455E-6-1.2420294656074956E-4i        -1.3197296726584575E-6-1.3300267343949697E-4i        -3.658942683834611E-6-3.687491226038987E-4i
160                                               3.766145410362559-0.06614036322560353i            3.765489979311929-0.06612885266426448i            2.003394839965805-0.03518325714005889i            1.9961791258711876-0.03505653607670462i           -2.700045831568382E-12-1.5374751889160903E-10i       -3.0040686275802696E-6-1.7105680589543347E-4i        -3.2029557839496437E-6-1.8238178076291614E-4i        -7.928503492233277E-6-4.5146254995674954E-4i
180                                               4.897157186239354-0.15746268287423135i            4.896078395037118-0.15742799553410616i            2.001100392461081-0.06434317390975385i            1.9904316960744626-0.06400013375565716i           -9.035069241070644E-12-2.8099537722990133E-10i       -8.048808939999203E-6-2.50321421061692E-4i           -8.539371787860986E-6-2.6557813669678175E-4i         -1.8247927657849642E-5-5.675184013742257E-4i
200                                               7.344929257920941-0.48299043281570553i            7.342931414849966-0.48285905795072526i            1.9926089538280842-0.1310306780700427i            1.975341391984709-0.12989519168541896i            -3.7676417944211766E-11-5.729494121953483E-10i       -2.7442722985403864E-5-4.1732681493363553E-4i        -2.8954249662337686E-5-4.403128944949326E-4i         -5.0857018921511084E-5-7.733925578267382E-4i
224                                               20.90486591062696-5.848742287445655i              20.897731714085317-5.846746289137012i             1.8444096308002804-0.5160270651413189i            1.7945956057158332-0.5020901474751263i            -6.363060735173918E-10-2.274327288140559E-9i         -3.7239785077669064E-4-0.0013310429410799405i        -3.899869534493166E-4-0.0013939107876667i            -4.849042789377814E-4-0.0017331690186457192i
250                                               -14.302582367076315-3.7405195232499353i           -14.296500975075226-3.7389290716150616i           1.891023297088614+0.4945547160744191i             1.9213313416711075+0.5024811051391888i            -5.628584229950203E-10+2.152195440969383E-9i         -2.659854630658288E-4+0.0010170456190064427i         -2.76025214454693E-4+0.0010554345033067856i          -1.7010900270713553E-4+6.504438775112444E-4i
280                                               -4.788705798878001-0.5541822626768245i            -4.786150855089282-0.5538865868534784i            1.9853471372322644+0.2297581465472611i            1.9915436972585283+0.23047525546987785i           -1.1675714180414592E-10+1.0089009933039345E-9i       -4.417449899698009E-5+3.8171319032616075E-4i         -4.530246124824307E-5+3.914599464704679E-4i          9.16417664934401E-6-7.918792935057112E-5i
315                                               -2.5550110969075304-0.22135138664091739i          -2.5532850849616273-0.221201854946888i            1.9953707563343082+0.17286738375106497i           1.9938326436742833+0.17273413056460146i           -6.628352952128775E-11+7.650980927375808E-10i        -1.987229203691043E-5+2.2938156135231963E-4i         -2.00628347025216E-5+2.315809540579251E-4i           2.590353494493354E-5-2.989988914895922E-4i
355                                               -1.6027477213192205-0.12326596429539623i          -1.601371814448478-0.12316014446801687i           1.9981185919430184+0.1536736017379635i            1.9910989451424714+0.15313372667192576i           -5.28359623089042E-11+6.869915089857761E-10i         -1.2490151135342374E-5+1.6240136833870866E-4i        -1.2354601165657906E-5+1.606388996280028E-4i         3.3622159613668044E-5-4.3716722630152225E-4i
400                                               -1.093681559791805-0.0811649476648299i            -1.0924887198399191-0.08107642391548023i          1.998995745821044+0.14835066353561457i            1.9866529297400914+0.14743467111324607i           -4.986007378448055E-11+6.718547090365303E-10i        -9.284220754608776E-6+1.251030318934152E-4i          -8.94408662697167E-6+1.2051979203459128E-4i          4.100258504063371E-5-5.525016950622101E-4i
450                                               -0.7870393776375073-0.0590788791092281i           -0.785952004595641-0.058997255772058i             1.9991018248989578+0.15006198977586843i           1.9808727265471358+0.14869362787631882i           -5.186735808044922E-11+6.909688297425729E-10i        -7.620814487310284E-6+1.0152327162643232E-4i         -7.097401734495633E-6+9.455045065418727E-5i          4.9671215973382833E-5-6.617119941542992E-4i
500                                               -0.6026136850265166-0.04686869469108918i          -0.6015847823958881-0.046788671079843656i         1.9988106900488383+0.15545887905460007i           1.9743777870253714+0.15355859318209972i           -5.673341090967744E-11+7.294490675315965E-10i        -6.7357907329478805E-6+8.660534930408055E-5i         -6.033754458481574E-6+7.757892624693792E-5i          5.9233103340542924E-5-7.615889223367228E-4i
560                                               -0.46194995125175276-0.03801636986826944i         -0.460959199649982-0.037934835539196674i          1.9981740866988635+0.16444059564309652i           1.9656934328050948+0.1617675862648058i            -6.514894023139627E-11+7.916470647122308E-10i        -6.141883938721292E-6+7.46321386264842E-5i           -5.212260487409163E-6+6.333596517521688E-5i          7.199562050324814E-5-8.748434818623435E-4i
630                                               -0.3571380071679312-0.03162022366076253i          -0.3561667916913313-0.03153423435137368i          1.9971711195649577+0.1768251942442i               1.9543549372817166+0.1730343424364049i            -7.798908122733445E-11+8.80856059296979E-10i         -5.775680756868319E-6+6.523404570678216E-5i          -4.549558488814378E-6+5.138547625780605E-5i          8.86780890743932E-5-0.0010015841871559169i
710                                               -0.2798316510219779-0.026976204946301104i         -0.2788627428449107-0.026882800696055444i         1.9957675723098878+0.19239508775790665i           1.9398179119843886+0.18700145377077715i           -9.662582027406427E-11+1.002326434633271E-9i         -5.589767664127543E-6+5.798420932062803E-5i          -3.972368352625508E-6+4.1206477960671704E-5i         1.100794757117314E-4-0.001141884912826871i
800                                               -0.22304391874370372-0.023597032233500646i        -0.22206023611092882-0.023492963084591034i        1.9939153399001035+0.21094717493983378i           1.9214651262732152+0.20328227183053355i           -1.2321793182889925E-10+1.1646807904750738E-9i       -5.557265447583813E-6+5.252839639592499E-5i          -3.418789148034359E-6+3.231508612591096E-5i          1.3707224382364556E-4-0.0012956345574456091i
900                                               -0.18145290456569416-0.02116513917109824i         -0.1804357225392783-0.02104649241147231i          1.9915548212127283+0.23230013902906443i           1.8986133342968776+0.22145920203737318i           -1.6120278717730535E-10+1.3820232337918001E-9i       -5.671523966912436E-6+4.8623091433068085E-5i         -2.8322113148938103E-6+2.4281105136269526E-5i        1.7058838787911457E-4-0.0014624878304420412i
1000                                              -0.15347324826606493-0.01960687924804945i         -0.15240568101308374-0.019470492858532952i        1.9888994119965953+0.2540906056795561i            1.873200696998454+0.23930958840281444i            -2.105294338622901E-10+1.6479234410312674E-9i        -5.916166357853025E-6+4.6308913149079413E-5i         -2.2171666340330796E-6+1.735491716777172E-5i         2.0769272105633583E-4-0.001625719021370646i
1120                                              -0.1311222104852779-0.018526696439696438i         -0.12996966419469466-0.018363849312735207i        1.9853479956454732+0.2805164701415187i            1.839369671055982+0.2598907035650246i             -2.9003804249997935E-10+2.052736678735601E-9i        -6.381220605238828E-6+4.5162922276852943E-5i         -1.37907566830299E-6+9.760372047287131E-6i           2.5675358933633654E-4-0.0018171668270707303i
1250                                              -0.11603621011403588-0.018110676197988573i        -0.11475338046969198-0.017910454971501934i        1.9810828162340808+0.3092030442131325i            1.7986711584724282+0.28073263428475564i           -4.124511785489658E-10+2.6425999182234654E-9i        -7.136810431388481E-6+4.572598094667499E-5i          -2.631176713243699E-7+1.6858110133062012E-6i         3.151677186775028E-4-0.0020192988504439202i
1400                                              -0.10709300237120463-0.018538674186916775i        -0.10558707099256294-0.01827798515440909i         1.9756819328259345+0.34200669360900804i           1.7465456857611734+0.3023413360719132i            -6.292250058522102E-10+3.6348659197139542E-9i        -8.472834625714191E-6+4.8945317745681044E-5i         1.4660986076368387E-6-8.469262692761667E-6i          3.88780453661038E-4-0.0022458815354291593i
1600                                              -0.10789578322313641-0.02106756272285458i         -0.1058658617897043-0.020671203422761672i         1.9679028288854667+0.3842496438835498i            1.6684021820227746+0.3257696136648729i            -1.1650003344756663E-9+5.966453038229597E-9i         -1.1670586531655772E-5+5.976994544036135E-5i         5.178502145107954E-6-2.6521271217783264E-5i          4.955330814957146E-4-0.0025378317675709065i
1800                                              -0.13182657856957514-0.02835241996173045i         -0.1285867483429764-0.027655617934506813i         1.960257355718704+0.4215996530098377i             1.579381454768352+0.3396832927864881i             -2.4664723109832905E-9+1.1468037163077552E-8i        -1.903419362258265E-5+8.850082724801294E-5i          1.3035588086362734E-5-6.0609887247257166E-5i         6.072686701654639E-4-0.0028235385611505488i
2000                                              -0.26053075145104165-0.0576304615275014i          -0.25231301845607373-0.05581266557607496i         1.9576579803420882+0.43304190500255163i           1.4691833553940417+0.3249893318470834i            -7.561798637457978E-9+3.4184718091114825E-8i         -4.690527571416218E-5+2.1204526920189237E-4i         4.132780981615001E-5-1.868311490458348E-4i           6.960438296864982E-4-0.0031466140855457977i
2240                                              0.27581796973629835+0.08898104562366142i          0.2644984868346167+0.08532929144146019i           1.9044414891149677+0.6143877978383873i            1.4085689860421777+0.45441542960622705i           1.6724063399676498E-8-5.184022260220912E-8i          8.769942024088783E-5-2.718452662401912E-4i           -9.470227849991766E-5+2.9355229534757017E-4i         0.0010099639936093307-0.0031306242389135446i
2500                                              0.11026169772159604+0.0350465052145193i           0.10605718909709654+0.03371010883683002i          1.9076349408189073+0.6063387312393383i            1.2366216922205469+0.3930582376310482i            -1.2508843428943805E-9+3.935474605435548E-9i         1.7726265941604966E-5-5.5769560046642675E-5i         -4.4306089962094786E-5+1.39393776033566E-4i          0.0011260338903374034-0.0035426758726638157i
2800                                              -0.04445711080182383-0.016138315477583817i        -0.046300442321527864-0.01680746075171932i        1.8845922920684288+0.6841232911333582i            1.0693930845518755+0.3881989327850312i            2.6147165715094124E-8-7.202904447740891E-8i          4.954700233860714E-5-1.3648986946160558E-4i          -4.063225914662508E-6+1.1193193301411732E-5i         0.0013700877311197336-0.003774256498881951i
3150                                              0.19894090649541607+0.08722362122129725i          0.18765676844172036+0.08227620542459874i          1.8457109269707377+0.8092332221368367i            0.8866037383759129+0.3887224101437249i            -8.693829399477958E-9+1.9829012796421765E-8i         4.34251328030618E-5-9.904467578325975E-5i            1.1375345994258382E-4-2.5945054930178336E-4i         0.0017146872943546194-0.003910883771230325i
3550                                              0.010897072847906478+0.0052950242258005395i       0.012643329070247613+0.006143552003012595i        1.803310467859797+0.8762511499399671i             0.6269037759763529+0.30462039919750905i           -1.7335821050374025E-8+3.567683485645626E-8i         -3.663157909729919E-5+7.538718784553752E-5i          -2.579841964173098E-5+5.309272369834266E-5i          0.0019983256865791043-0.00411252142619534i
4000                                              0.006765309792478218+0.0036872333690404044i       0.009533739605810523+0.005196084715199964i        1.7627653616054948+0.9607434784919311i            0.33298249722794837+0.18148232863362773i          -2.1556347673350793E-8+3.95514347502173E-8i          -5.093457621273056E-5+9.345440137338931E-5i          2.821476339783463E-5-5.17682489832768E-5i            0.0022916306612498602-0.004204667782518621i
4500                                              0.058222998134428855+0.03553589972381621i         0.0495207136665542+0.03022453620549436i           1.7108904234716102+1.044227066193904i             0.007392251274040258+0.004511796167808489i        3.728184674142764E-9-6.108360587337423E-9i           5.969335896477171E-5-9.780324558137278E-5i           2.063855705768509E-5-3.381478106373619E-5i           0.0025406831899461337-0.004162725406659691i
5000                                              -0.0054297646498225145-0.003917253898472406i      -0.0018938327309021747-0.0013662882512640413i     1.622914446868026+1.170836740426446i              -0.24883866562390114-0.17952237267720905i         -1.032236460944205E-8+1.4307985111864035E-8i         -5.368323738149755E-5+7.441114417826129E-5i          -7.20536673434247E-5+9.98746739352531E-5i            0.0028198596753974178-0.003908649982811764i
5600                                              0.002504785054050015+0.002115048964295198i        -9.577628024889279E-4-8.087381470788156E-4i       1.5305041917573792+1.2923629116961761i            -0.5386556422799409-0.45484264466977725i          1.7545587293628518E-9-2.077867962388971E-9i          6.589749809144737E-5-7.804030597172962E-5i           -5.8234910581762063E-5+6.896574789117972E-5i         0.00294579351874426-0.003488609343166947i
6300                                              -0.003797324772630801-0.003759989524268909i       -0.0061847662788624665-0.0061239577362936035i     1.421006724752837+1.4070354048972775i             -0.8150186339746345-0.8070053812330928i           9.750566095317507E-9-9.847385462672882E-9i           6.444225326431342E-5-6.508214002865853E-5i           -7.660539560094831E-5+7.736605768584128E-5i          0.0028150593000899364-0.0028430117552017947i
7100                                              -0.006549950632051589-0.008021788477071011i       -0.0033685021078743082-0.004125437413477329i      1.2679844554989175+1.5529129402132098i            -0.9768126952166262-1.1963120430746246i           5.421499686922647E-9-4.426762860055292E-9i           -4.8651015388073186E-5+3.97245265068506E-5i          -3.635023878036765E-5+2.96806965372333E-5i           0.0024096478348104794-0.00196752562165335i
8000                                              -0.006609189747405579-0.010136943062937968i       -0.008364249513814214-0.012828792079847598i       1.0976899835964067+1.6835983365194946i            -1.0187478764652302-1.5625197056946694i           1.5460182817642478E-8-1.0079891061540361E-8i         6.425030846566022E-5-4.189058548938513E-5i           5.444210955430738E-5-3.5495733778864044E-5i          0.0014991052586209733-9.774022649354812E-4i
9000                                              0.0015082092166661223+0.003092348333206838i       5.73811531034947E-4+0.0011765112637884853i        0.8787059478524487+1.8016498262984286i            -0.8785669978044913-1.8013649307927868i           -9.51922134342687E-9+4.642742608074278E-9i           -1.6807870429658745E-6+8.19758395984241E-7i          4.550938092749596E-7-2.2195968998524325E-7i          1.3014750416572623E-4-6.347592368868585E-5i
