% Model:              cav_with_foamslab_puretube_rigid_end.mph
% Version:            COMSOL 6.2.0.290
% Date:               Mar 15 2026, 11:22
% Table:              Table 14 - Point Evaluation 2
% freq (Hz)                                       Total acoustic pressure (Pa), Point: 5            Total acoustic pressure (Pa), Point: 6            Total acoustic pressure (Pa), Point: 7            Total acoustic pressure (Pa), Point: 8            Total acoustic velocity, z-component (m/s), Point: 5 Total acoustic velocity, z-component (m/s), Point: 6 Total acoustic velocity, z-component (m/s), Point: 7 Total acoustic velocity, z-component (m/s), Point: 8
100                                               0.07735395963060461+5.615650314979801E-4i         0.07734581865566072+5.615059306210165E-4i         2.0050420343577313+0.014555964536990486i          2.0034687695256435+0.01454454313698444i           1.0360741252874228E-11-1.427162130488427E-9i         3.989466235349944E-8-5.495374405483043E-6i           3.200056000578569E-7-4.40798462857192E-5i            1.4058259753925503E-6-1.936484639505374E-4i
112                                               0.07754426424518383+6.301884578664809E-4i         0.07753402670776877+6.301052592188595E-4i         2.005026363682891+0.016294493015186918i           2.003052599294898+0.016278452582693448i           1.3023458154744504E-11-1.6025276798699151E-9i        5.014560991942698E-8-6.170383442949533E-6i           4.0158373227188356E-7-4.941460711124957E-5i          1.7626271431541005E-6-2.168900798766722E-4i
125                                               0.07777559013139944+7.050098304842687E-4i         0.07776279948790132+7.048938875593842E-4i         2.005007409825266+0.018174724637028947i           2.0025484635002693+0.018152435107256892i          1.6262979267433817E-11-1.7941066804180139E-9i        6.261604583943211E-8-6.90770497974637E-6i            5.004734750979574E-7-5.521145690335211E-5i           2.1942841123434713E-6-2.4207001716606503E-4i
140                                               0.07807542338501638+7.920385632168163E-4i         0.07805931602527336+7.918751616044402E-4i         2.0049829957430463+0.020339612420561412i          2.0018978517857087+0.02030831508163744i           2.0466470507923753E-11-2.0174880615322874E-9i        7.879547755866711E-8-7.767286287459053E-6i           6.282060891982226E-7-6.192559133613348E-5i           2.7504465026557266E-6-2.711260349992112E-4i
160                                               0.07853097856964494+9.09394030686983E-4i          0.07850981579969141+9.091489643829706E-4i         2.0049462296986467+0.023217412622960548i          2.0009153817541447+0.023170735131782624i          2.686283906978757E-11-2.31974807214829E-9i           1.0341159134721147E-7-8.930137201167432E-6i          8.213270635619484E-7-7.092593073219924E-5i           3.588335519684973E-6-3.098717281086751E-4i
180                                               0.07905164531291842+0.0010284642624442052i        0.07902468095268639+0.0010281134553136446i        2.004904685536004+0.026083869735014305i           1.9998013057233293+0.026017474611493598i          3.4187526637555597E-11-2.6277823391772927E-9i        1.3159473264084018E-7-1.0114867875997378E-5i         1.04065890988427E-6-7.998897194532318E-5i            4.5355984669583004E-6-3.486232185363756E-4i
200                                               0.0796391275936078+0.001149483837883398i          0.07960558717920949+0.0011489997270520552i        2.0048584103330307+0.028937438286395775i          1.998555384922859+0.0288464625806371i             4.246977075291353E-11-2.9424124186301066E-9i         1.6345521999950335E-7-1.1324588212921205E-5i         1.28637514619731E-6-8.912330128163603E-5i            5.5913317717675595E-6-3.873815096426888E-4i
224                                               0.0804350577568321+0.0012976217098955786i         0.08039255790837777+0.001296936079430959i         2.004796709902948+0.03234246120095972i            1.9968858578136228+0.03221483907074354i           5.371953305949408E-11-3.3298870986529433E-9i         2.067195600401228E-7-1.281382672971058E-5i           1.6163368302454639E-6-1.0019109984341074E-4i         6.999940991876466E-6-4.339020022013925E-4i
250                                               0.08141353898026633+0.0014621697130125498i        0.08135994693635548+0.001461207211388784i         2.00472238551583+0.0360043844281234i              1.9948618798192148+0.035827291858935205i          6.759321645368665E-11-3.763587029108692E-9i          2.6005682969174004E-7-1.4479951713357937E-5i         2.017422262875208E-6-1.1232997413165978E-4i          8.698185467469647E-6-4.843145466435327E-4i
280                                               0.08270000969218759+0.0016580255278373659i        0.08263170574500203+0.0016566561242725136i        2.0046271459051517+0.04019011598762224i           1.9922472306932348+0.03994191510432831i           8.59034623804671E-11-4.284745367126739E-9i           3.3042070584407943E-7-1.6480925725792868E-5i         2.537276013144879E-6-1.2655580228030955E-4i          1.0876539427981584E-5-5.425066750099626E-4i
315                                               0.08442717953532194+0.0018958464605368119i        0.08433890007861664+0.0018938641096344826i        2.0045035240309064+0.04501193729417024i           1.9888167481482857+0.04465968439767092i           1.1060216703831494E-10-4.925414171531872E-9i         4.252830804335013E-7-1.8939007842939158E-5i          3.222223827653725E-6-1.4349435740912365E-4i          1.3707606696838915E-5-6.104368659504765E-4i
355                                               0.08672305886821984+0.0021819104678185257i        0.08660784141209402+0.0021790116520147796i        2.0043463162953885+0.05042838970087384i           1.984391662013824+0.04992634019261983i            1.4362044980555104E-10-5.708394034723029E-9i         5.520113322299965E-7-2.1940456295987343E-5i          4.110482960643793E-6-1.6337684842297238E-4i          1.731317645845256E-5-6.881362198301354E-4i
400                                               0.08975789289537484+0.0025250727836770904i        0.08960641918530278+0.0025208115189525363i        2.0041501006841393+0.0563808341572821i            1.978764219115028+0.055666677478992274i           1.8755211244729284E-10-6.666850337291912E-9i         7.204804502077779E-7-2.5610670512555977E-5i          5.247507221214256E-6-1.865313325518059E-4i           2.1820721984835684E-5-7.756536919042243E-4i
450                                               0.09376257980076338+0.0029377654673479526i        0.09356219102980973+0.0029314868942476495i        2.0039095620753553+0.06278641568590257i           1.9716949935164731+0.06177707008918518i           2.459334020081926E-10-7.849282223636382E-9i          9.441229471518446E-7-3.0132903445801062E-5i          6.686964962248613E-6-2.1342312477507544E-4i          2.7354898365017182E-5-8.730669175691005E-4i
500                                               0.09853436988380475+0.003389781094621246i         0.09827420088870316+0.003380830756358142i         2.0036472707320585+0.06892950801457694i           1.9637516057916438+0.06755701666020768i           3.1595649911008434E-10-9.184243364154335E-9i         1.2120361159783356E-6-3.523154198773147E-5i          8.317982230191064E-6-2.4178763019735004E-4i          3.339469359075005E-5-9.707190520178449E-4i
560                                               0.10546295290780976+0.003994620119071494i         0.1051133123981631+0.003981376785978994i          2.0033070283547136+0.07587925749754411i           1.9530379113785983+0.07397521422446814i           4.181745676664544E-10-1.1040330106383206E-8i         1.6025606844435012E-6-4.230960065226905E-5i          1.0537442576900991E-5-2.782016254694581E-4i          4.122261768326023E-5-0.001088328516421256i
630                                               0.11559928194239262+0.004805413437749387i         0.11511361678810358+0.0047852245419409325i        2.0028804838172416+0.08325889771476006i           1.9388512601045016+0.08059722986638669i           5.680145742775473E-10-1.3664188892361715E-8i         2.17396564999549E-6-5.229703361893751E-5i            1.3502054152836445E-5-3.2480613479646134E-4i         5.0979441550653714E-5-0.0012263641649069086i
710                                               0.1307537043686363+0.005905194062075319i          0.13005483122884035+0.005873631044146348i         2.0023629609044926+0.09043217493491572i           1.9202850049375464+0.086725310486609i             7.904079180028309E-10-1.7501332238915806E-8i         3.020100552627335E-6-6.687152541826256E-5i           1.73985460953533E-5-3.852412517999518E-4i            6.258323726192841E-5-0.0013857275507162558i
800                                               0.1542968649377308+0.007419786545118166i          0.15324754604817223+0.007369327177836616i         2.0017535200554346+0.09625979011786313i           1.8961077229407615+0.09117952316425426i           1.125892206486743E-9-2.3413293178674265E-8i          4.292933188902814E-6-8.927293641226452E-5i           2.2412344785506706E-5-4.660719705716204E-4i          7.541294888403634E-5-0.0015682367031581825i
900                                               0.1932130167688071+0.009511052215055714i          0.1915453639703219+0.00942896078504634i           2.0010402810790446+0.0985026729360871i            1.8644495985616245+0.09177889658160109i           1.6362933893868747E-9-3.324061047761923E-8i          6.22275869943306E-6-1.2641272003937763E-4i           2.8565188071132705E-5-5.802897552234763E-4i          8.751520576502805E-5-0.001777834516986229i
1000                                              0.25604473627950197+0.011932633039189526i         0.25330755259064913+0.011805070141414192i         2.0001979737683966+0.09321663383329437i           1.8261324723637224+0.0851045367706713i            2.3012731740324163E-9-4.937961979756424E-8i          8.7262880853199E-6-1.8724451880541195E-4i            3.4403292031790645E-5-7.382093965761312E-4i          9.32402318876227E-5-0.0020007043297806493i
1120                                              0.40159587224467835+0.013291939453038039i         0.39618614752273706+0.013112889471623292i         1.9981788837655492+0.06613532303232668i           1.7651835927290627+0.05842369172483087i           2.9060513543731942E-9-8.780195191636913E-8i          1.0977219853664594E-5-3.31660116082362E-4i           3.471141579739969E-5-0.001048752994493639i           7.635936071582485E-5-0.002307082738729569i
1250                                              0.8564418699614521-0.019624755701947834i          0.841988214077235-0.019293560467716075i           1.9841166990036883-0.04546462155552367i           1.642737568541419-0.037642161827841907i           -4.861647755048649E-9-2.1216665102372645E-7i         -1.827985830867494E-5-7.977493462992956E-4i          -4.277018388897822E-5-0.001866529032248344i          -6.40112741495264E-5-0.002793509185472407i
1400                                              -0.2597314940329998-7.509828065130528i            -0.2541888866933409-7.349570148360219i            0.01142774198249686+0.33041960421761196i          0.04424456080183489+1.2792789941684435i           -2.126406090652686E-6+7.354291284714839E-8i          -0.007948812195872058+2.749139992975169E-4i          -0.01157480391092185+4.0032089774221663E-4i          -0.00375083273054455+1.2972459297758046E-4i
1600                                              -1.0823036841501918-0.24840977073938064i          -1.051731282915988-0.2413928093331149i            1.947239953258571+0.4469294870259359i             1.6899060698084105+0.3878663498234299i            -8.303856032235508E-8+3.617930948996409E-7i          -3.077767866999833E-4+0.0013409615457146595i         -1.371664696017519E-4+5.976245416995159E-4i          5.478229923860337E-4-0.0023868257725146134i
1800                                              -1.0390150501359328-0.1624899649728208i           -1.0012190839840331-0.15657911198245023i          1.9791521632781444+0.3095165615212934i            1.5270165034893701+0.23880776138120277i           -6.357580687651415E-8+4.0652492097397303E-7i         -2.3354157256691956E-4+0.0014933427351654636i        7.482803222224664E-5-4.784754040901989E-4i           4.7993262791301615E-4-0.003068849350569901i
2000                                              -3.2989511344295255+0.5043891063919714i           -3.1473901233249673+0.4812163706223909i           1.8716279566596237-0.2861602715800833i            0.9140571957517329-0.13975365907885084i           2.3143125559596248E-7+1.5136734584888402E-6i         8.380888070286616E-4+0.005481510178673927i           -6.851565605827911E-4-0.004481258584200926i          -6.538977756075401E-4-0.004276810861288116i
2240                                              0.803165258918143+0.3131370673369942i             0.7551032767143643+0.29439872178409243i           1.8354948501982662+0.71562043816166i              1.4516760947162493+0.5659776614767941i            1.7240992560198053E-7-4.4221421535412455E-7i         6.210797841381333E-4-0.0015930075282313684i          -6.698104900591715E-4+0.0017179969150553918i         0.001114787998921729-0.0028593197203829832i
2500                                              0.3336586175076896+0.10718241193750462i           0.30724052053215795+0.09869602733941728i          1.8918709215816965+0.6077328077548618i            1.239873107154316+0.3982890989403877i             7.443022535680418E-8-2.3170113124015085E-7i          2.620728936339574E-4-8.158323534194507E-4i           -2.735280029412643E-4+8.514920840206336E-4i          0.0011339406626490248-0.0035299548406128732i
2800                                              0.24086114778702267+0.07075884194339932i          0.2142180413699554+0.06293177903529855i           1.899605026387527+0.5580553487018307i             0.9905018998876852+0.290984112723607i             6.920243348734024E-8-2.3556317629870612E-7i          2.2821675953190186E-4-7.768435595520411E-4i          -1.96510962721928E-4+6.689179010562123E-4i           0.0011782353600554348-0.0040106806923460945i
3150                                              0.18274741809075326+0.010234041142164436i         0.030641226599050365+0.0017159398307097832i       1.8723559559009022+0.10485383643531268i           0.29244784058212486+0.01637737629033642i          8.956685338235395E-8-1.5993790697813067E-6i          3.1652075916978507E-4-0.005652053837471577i          3.43446975698114E-5-6.132870406522895E-4i            2.6972651498288454E-4-0.004816457499490467i
3550                                              0.16737660329724743+0.08206885386511542i          0.19180051169748302+0.09404449520223965i          1.8018447939429294+0.8834886965599469i            0.6318249980022385+0.30979929337474965i           -1.5358852543667908E-7+3.1323851232199017E-7i        -5.941409934012517E-4+0.0012117301104094269i         1.4176739104722659E-5-2.8912971552889616E-5i         0.002010294152228726-0.004099925745113069i
4000                                              -0.1890142964780168-0.10190093491980792i          -0.14269642116203776-0.0769301528882692i          1.79246677242459+0.9663503942623196i              0.32589663017546006+0.1756966108933385i           -1.5977455343740843E-7+2.963630788742601E-7i         -5.345591618200954E-4+9.915446210265193E-4i          4.885608242508363E-4-9.062230935876222E-4i           0.0022743969665642632-0.004218739925094982i
4500                                              -0.23367985609291475-0.14322960997158934i         -0.22390510398327146-0.13723836213516236i         1.7276200372033454+1.0589117446621417i            0.01060541859015432+0.006500389006821649i         4.336010066072451E-10-7.074223049536455E-10i         2.366269817598026E-4-3.860581555469024E-4i           3.669209137557106E-4-5.986333855195689E-4i           0.002548498416625896-0.004157888465730235i
5000                                              -0.31015809198379923-0.21072506682235598i         -0.20194663643641694-0.13720492728539413i         1.6045394537125774+1.0901430346055319i            -0.2999076186705755-0.20376077432357487i          -2.1952405007442526E-7+3.23108975803945E-7i          -0.0013998063230311712+0.002060320895113063i         -0.0010159069084264177+0.0014952741650633137i        0.0026956399490199847-0.003967608390742039i
5600                                              0.22850356919119758+0.2154164033200051i           0.19744055563849977+0.1861324727473336i           1.464796241728862+1.3809024476369138i             -0.43756283000497825-0.4125021390245055i          7.465463068917443E-8-7.919011415471777E-8i           -1.0880337702853812E-4+1.1541349501662537E-4i        5.9275441633806345E-5-6.287659514293461E-5i          0.0031917074192733073-0.0033856128218612332i
6300                                              0.2186125422284848+0.19912208741112739i           0.1497673559425425+0.1364148105928164i            1.442106628550587+1.3135352584031827i             -0.8978692073216327-0.8178194579321841i           1.3762031501019496E-7-1.5109085746280421E-7i         1.70659422944607E-4-1.873638971444926E-4i            -8.083732453334255E-4+8.874983811661221E-4i          0.002613503703600917-0.002869318498076436i
7100                                              0.011230955261158977+0.008911739586277298i        -0.2014687788690226-0.15986505602719903i          1.4861429139833864+1.1792513040577353i            -1.3958945562609006-1.1076394203318465i           7.235498558510496E-7-9.118484647728514E-7i           0.0025014745792391714-0.003152465218951394i          1.42904069532725E-4-1.8009381849787742E-4i           0.0013900257232592333-0.0017517698492826748i
8000                                              0.0877010439269784+0.18521712386578215i           0.16351584343418984+0.3453315134151864i           0.9577983299424258+2.0227883725477556i            -0.7484016623325267-1.5805604720704058i           3.387277560311036E-8-1.603889380760937E-8i           -0.0034381056544627404+0.001627956685288558i         0.0025730166050338303-0.0012183335838113043i         0.002156940315781327-0.0010213198082997686i
9000                                              -0.17416588410989067-0.18144488183517068i         0.3387225387296838+0.3528789310769982i            1.0365533284355817+1.0798744952600752i            -1.3338643358422904-1.3896111631407813i           -1.6987256957922673E-6+1.6305781660803596E-6i        -0.004405146062633598+0.0042284254638180465i         -9.270583688912031E-4+8.898677042129481E-4i          -9.77862167612922E-4+9.386334138912265E-4i
