% Model:              cav_with_airslab_puretube_rigid_end.mph
% Version:            COMSOL 6.2.0.290
% Date:               Mar 13 2026, 12:30
% Table:              Table 14 - Point Evaluation 2
% freq (Hz)                                       Total acoustic pressure (Pa), Point: 5            Total acoustic pressure (Pa), Point: 6            Total acoustic pressure (Pa), Point: 7            Total acoustic pressure (Pa), Point: 8            Total acoustic velocity, z-component (m/s), Point: 5 Total acoustic velocity, z-component (m/s), Point: 6 Total acoustic velocity, z-component (m/s), Point: 7 Total acoustic velocity, z-component (m/s), Point: 8
100                                               2.0049754288891637-0.022658650981128292i          2.00483920002848-0.022657111429988008i            2.0044133718899335-0.022652299056215103i          2.001570615711748-0.02262017246795994i            -6.17926335130347E-14-5.4681017748073585E-12i        -6.423029609935044E-7-5.6834877581933736E-5i         -1.304586399674171E-6-1.1543774951125249E-4i         -3.209788105322306E-6-2.840215989966825E-4i
112                                               2.0049427694687174-0.025377545142982034i          2.0047718872616005-0.0253753822029763i            2.0042377450332616-0.025368621302506278i          2.0006721490030333-0.02532348980269682i           -9.014375177204538E-14-7.119987490227316E-12i        -8.056957509338733E-7-6.36536694605429E-5i           -1.6364252590531538E-6-1.292851208593111E-4i         -4.025755377776127E-6-3.180531879840824E-4i
125                                               2.004903216667386-0.0283229584985559i             2.0046903680943315-0.028319951619594847i          2.004025057314946-0.028310552876834334i           1.9995842348560195-0.02824781806292544i           -1.3136951420362802E-13-9.29875664963663E-12i        -1.0035733604126295E-6-7.104015841455228E-5i         -2.038284270807126E-6-1.4428445712199326E-4i         -5.013633743805146E-6-3.54901145660625E-4i
140                                               2.0048521874250302-0.031721432364060914i          2.0045851981720877-0.031717207972067174i          2.0037506728275507-0.031704003836900065i          1.998180977327929-0.03161587827822446i            -1.956606765531282E-13-1.236498429380811E-11i        -1.2588602481909565E-6-7.956225599383417E-5i         -2.556706802000528E-6-1.6158851737180498E-4i         -6.28763078263793E-6-3.973896948582887E-4i
160                                               2.0047751639031546-0.036252580639699904i          2.0044264590121004-0.03624627496891449i           2.0033365465615747-0.03622656595629586i           1.9960635615039897-0.03609504772819842i           -3.164426609423809E-13-1.749838736142086E-11i        -1.6441819166004599E-6-9.092359807723488E-5i         -3.339141526065917E-6-1.8465521301107177E-4i         -8.209515426383964E-6-4.539878911609769E-4i
180                                               2.004687872609835-0.04078353499824481i            2.0042465655954653-0.0407745570120399i            2.0028672596580743-0.04074649629857943i           1.9936648535352117-0.040559281791370624i          -4.878019121673857E-13-2.3977557862635198E-11i       -2.0808550401454705E-6-1.0228306260856113E-4i        -4.2257702157061E-6-2.0771495909359476E-4i           -1.0386008855640546E-5-5.10517442824572E-4i
200                                               2.0045903143593313-0.045314271249299556i          2.0040455220858266-0.04530195608211585i           2.0023428332374653-0.04526346636989134i           1.9909852393207483-0.04500672508575334i           -7.226882699184935E-13-3.1970895065218526E-11i       -2.5688703349912935E-6-1.1364041504799031E-4i        -5.216543891318829E-6-2.307668880169514E-4i          -1.2816495926829134E-5-5.669698064067544E-4i
224                                               2.004459693230892-0.050750832779469436i           2.0037763582050867-0.05073353144797144i           2.0016407706431054-0.05067946059405996i           1.9873995160085418-0.05031888685193584i           -1.1089395248442922E-12-4.3798695734559916E-11i      -3.2222456699681466E-6-1.2726611985224885E-4i        -6.542866214560352E-6-2.5841766306149453E-4i         -1.606737959458708E-5-6.345987446455657E-4i
250                                               2.004301506618028-0.05663999894793801i            2.0034504130098023-0.05661594770568964i           2.000790692399593-0.05654078607353669i            1.983060178421666-0.05603973556305426i            -1.6865782343190883E-12-5.968141040685333E-11i       -4.013459806255848E-6-1.4202301705233637E-4i         -8.148739069767128E-6-2.883568202319162E-4i          -1.9999250481236165E-5-7.077070729753046E-4i
280                                               2.004097430305164-0.0634345516369972i             2.0030299464008587-0.06340076317849944i           1.9996942404816662-0.06329517998370207i           1.9774670161765633-0.06259163434435255i           -2.609633441511334E-12-8.244610711325591E-11i        -5.034129394829696E-6-1.5904401503031592E-4i         -1.0219907617960851E-5-3.228790945396991E-4i         -2.5063564394464785E-5-7.918369988994667E-4i
315                                               2.003830159826811-0.07136056039615234i            2.002479337533265-0.07131245480427355i            1.9982586580524122-0.0711621476280246i            1.9701504093511748-0.07016115442047699i           -4.1215967544812836E-12-1.1573587798887953E-10i      -6.370732351365422E-6-1.7889245200658428E-4i         -1.2931470291432806E-5-3.6312032917078826E-4i        -3.168215338180639E-5-8.896462432346702E-4i
355                                               2.0034862356825083-0.08041741976288219i           2.0017709119515543-0.0803485688239316i            1.9964120094842535-0.08013346921330988i           1.9607496133658995-0.07870202544928029i           -6.572966101569379E-12-1.6375614876582411E-10i       -8.090463688993462E-6-2.015624561070603E-4i          -1.6419106683779642E-5-4.0905881263226206E-4i        -4.01757298876242E-5-0.0010009214679076706i
400                                               2.0030502834212793-0.09060432528377475i           2.0008730842655225-0.0905058436519613i            1.9940723007658-0.09019822261743547i              1.9488563229852984-0.08815296035280949i           -1.0498445866979876E-11-2.3209577121852553E-10i      -1.027002159309766E-5-2.2704622100907742E-4i         -2.0837372181671984E-5-4.606656925430458E-4i         -5.090449972893526E-5-0.001125379746332757i
450                                               2.0025050182750466-0.1019202290221126i            1.9997503832317298-0.10178002810779528i           1.991147607853269-0.1013421781005311i             1.9340169982916562-0.098434437666661i             -1.6695938446914743E-11-3.2803758164919074E-10i      -1.299555090066228E-5-2.553335696313991E-4i          -2.635939984457971E-5-5.179033737850333E-4i          -6.426446932517091E-5-0.0012626533863677601i
500                                               2.0018957038961602-0.11323273971165451i           1.9984961374840882-0.11304045086367827i           1.9878815869727744-0.11244006262523783i           1.917482059186677-0.10845807126071465i            -2.5314754155972988E-11-4.475514118176101E-10i       -1.6040517712290046E-5-2.8358797621834576E-4i        -3.252467911293323E-5-5.750193411606735E-4i          -7.911633570309148E-5-0.0013987354977694141i
560                                               2.0010800274835048-0.12680274923664298i           1.9968176558318254-0.12653265486946214i           1.983513103917766-0.1256895832596845i             1.8954254108992314-0.12010771672001383i           -3.9651106442915435E-11-6.257356827709977E-10i       -2.011556468295356E-5-3.174446529822981E-4i          -4.076909628701213E-5-6.433789867301076E-4i          -9.887058017376379E-5-0.0015602811805974092i
630                                               2.0000119772281266-0.1426267183798883i            1.994620800829913-0.14224225778333224i            1.977799355456395-0.14104267119117764i            1.866679667858542-0.13311840045187218i            -6.326829567784903E-11-8.87192461795766E-10i         -2.5449385145351294E-5-3.5686914543046986E-4i        -5.154892773531221E-5-7.228552549970078E-4i          -1.2451656102928856E-4-0.0017460586364095067i
710                                               1.9986379506279845-0.16069984925169611i           1.9917961885918565-0.16014973954949804i           1.9704593546591151-0.15843415819799672i           1.8299239564976322-0.14713445417112134i           -1.0173469011900658E-10-1.2652829761682343E-9i       -3.230778070991775E-5-4.0181466832793646E-4i         -6.539118527754519E-5-8.132758377856742E-4i          -1.5714354802630055E-4-0.001954407924023064i
800                                               1.9968968025783578-0.18101578421447265i           1.9882194766318342-0.18022919726663114i           1.9611754227459943-0.17777769320484746i           1.7837103943914387-0.1616907470809295i            -1.6355010692281527E-10-1.8042217617933824E-9i       -4.099300219606663E-5-4.522190999458321E-4i          -8.289014411895149E-5-9.144123230725359E-4i          -1.9789908244182794E-4-0.0021831468822331827i
900                                               1.994719907243781-0.2035662679055495i             1.983751750095781-0.20244693941822064i            1.9495951994134686-0.19896117606785005i           1.7264993671094009-0.1761936758276906i            -2.613997327739147E-10-2.561422655639814E-9i         -5.1842860237043026E-5-5.080015781949195E-4i         -1.0470266142007366E-4-0.0010259680310733916i        -2.479337838973625E-4-0.0024294715400740774i
1000                                              1.9922883758107317-0.22608998557373225i           1.978766856458452-0.22455552893963804i            1.9366961808800687-0.2197812409650252i            1.663338948592046-0.18875996239180712i            -3.977259216082286E-10-3.5047316807259773E-9i        -6.39499377542056E-5-5.635221626388517E-4i           -1.2897997960104268E-4-0.0011365621233483546i        -3.026207157528865E-4-0.0026666715587460106i
1120                                              1.9890350493072495-0.2530790923918038i            1.972106229996273-0.2509251181679816i             1.91949686088419-0.24423125352702i                1.5800500748484037-0.2010410218843908i            -6.247670928506953E-10-4.910257675057211E-9i         -8.01289734510629E-5-6.297609776960331E-4i           -1.6131900261928125E-4-0.001267861154773877i         -3.7382736185418016E-4-0.00293803695144478i
1250                                              1.9850985110962702-0.2822634854302842i            1.964060786980925-0.2792721067651323i             1.8987766067937104-0.26998927261856626i           1.4811197530754192-0.2106021547577105i            -9.678460118454994E-10-6.806652979061843E-9i         -9.967471649885872E-5-7.009908880499839E-4i          -2.002292468145828E-4-0.001408169317840145i          -4.5701787523178396E-4-0.003214108627069212i
1400                                              1.9800252031246028-0.31586042864275754i           1.9537147728305895-0.3116632983348565i            1.8722204665981312-0.29866304638962454i           1.3565773711978146-0.21640588679279454i           -1.5204723521243937E-9-9.531341557336602E-9i         -1.2481386656748944E-4-7.824171029116525E-4i         -2.500191081671663E-4-0.0015672876072540822i         -5.595063716985771E-4-0.0035073615330244836i
1600                                              1.9723785082466965-0.36051197471843666i           1.9381698332711033-0.35425930216274387i           1.8325095687344544-0.3349466852090945i            1.1750629699351438-0.2147783855581116i            -2.588669490978581E-9-1.4162736385777269E-8i         -1.6259392839320535E-4-8.89559272433664E-4i          -3.2430263872190056E-4-0.0017742754738794982i        -7.041322977514156E-4-0.00385234197027134i
1800                                              1.963727515600527-0.40497851250224215i            1.9206552490955406-0.3960957412008706i            1.7880428749773811-0.36874715969803473i           0.9785264920683547-0.2018010136614543i            -4.1384077777727434E-9-2.0067003521410316E-8i        -2.051715532246585E-4-9.948701277910088E-4i          -4.0723410221265785E-4-0.001974664796077251i         -8.538609724734775E-4-0.004140343831386641i
2000                                              1.954076748819461-0.4492383971836071i             1.9012079865682032-0.43708397283503153i           1.7390156507621064-0.39979627417272684i           0.7700582562052698-0.17703487693927372i           -6.294947780173231E-9-2.738147753643375E-8i          -2.5245869803426407E-4-0.0010981333629511009i        -4.983572084469653E-4-0.0021677315201416355i         -0.0010040748436009879-0.004367479089477426i
2240                                              1.9411826864211736-0.5020470961710279i            1.8753776443200774-0.48502797142230253i           1.6744666090336722-0.4330664520043566i            0.508743891532049-0.13157617530121654i            -9.880270838351773E-9-3.820241340269156E-8i          -3.152817167215409E-4-0.0012190478035082946i         -6.178080199365811E-4-0.002388776353811393i          -0.0011782418516399667-0.004555713398595762i
2500                                              1.925606762854659-0.5588422579754891i             1.844410196161882-0.5352776997563539i             1.5979489596581764-0.4637506587383962i            0.21833773556452918-0.06336514572963306i          -1.5285074446711152E-8-5.266789025484709E-8i         -3.9061675139317304E-4-0.0013459509323649i           -7.586027935315969E-4-0.0026139230680886343i         -0.001350289065062697-0.0046527006830994425i
2800                                              1.9055719179570179-0.6237785373272937i            1.804960219332392-0.5908438484736878i             1.5018645457616655-0.49162713870349056i           -0.11660405482218818+0.03816969912063054i         -2.3963461253877416E-8-7.320562679999146E-8i         -4.866083705668861E-4-0.0014865327844849545i         -9.340893629277962E-4-0.002853535914339444i          -0.0015141552845477839-0.004625570802684024i
3150                                              1.8794300236894668-0.69863388268767i              1.7541365609325792-0.652058986438332i             1.3804173732767218-0.5131376731593474i            -0.4926630033794171+0.18313587766878103i          -3.820463570881176E-8-1.0277620534534475E-7i         -6.102998094977654E-4-0.0016417981060544502i         -0.0011536440188429226-0.0031034755962909026i        -0.0016396657553021494-0.004410947029124361i
3550                                              1.845948962995876-0.7828436261980656i             1.6901241808000933-0.716760305374454i             1.2312751574197085-0.5221682334692977i            -0.882370815442355+0.3742023114712651i            -6.126105215391207E-8-1.4445385000537934E-7i         -7.661191024355735E-4-0.0018065124570797542i         -0.0014194677299927765-0.003347111602494324i         -0.0016723359744217675-0.003943376115525411i
4000                                              1.8037676218447236-0.8756570674537891i            1.6111992987898016-0.7821728453130715i            1.053387698357851-0.5113776140923195i             -1.2435337382845812+0.6036859146154041i           -9.799940682901422E-8-2.0186916034900745E-7i         -9.582830708049106E-4-0.001973969079820213i          -0.0017303082695957345-0.00356426522266569i          -0.0015427326637571-0.0031778778833273427i
4500                                              1.7514290931309484-0.9761034166539978i            1.5159221851901765-0.8448511162393336i            0.8477276828776228-0.47245411812235866i           -1.5210674441907455+0.8477186630410497i           -1.5549564890886524E-7-2.7900691539674683E-7i        -0.0011903465138364327-0.00213584696013735i          -0.0020797553224042977-0.0037317193200072625i        -0.0011769859779073475-0.002111874058359253i
5000                                              1.6935100544797534-1.073417624064235i             1.4138912727774928-0.8961835252736133i            0.6389122687613368-0.40496936389903454i           -1.6499775874876839+1.045824922647594i            -2.3449692102059168E-7-3.699612197577921E-7i         -0.0014390052221474265-0.0022702904792344875i        -0.002421250581955792-0.0038199598302027715i         -5.883025937739831E-4-9.281535306119766E-4i
5600                                              1.616918986645259-1.1856409471204286i             1.2844465768858075-0.9418483353356734i            0.3918371237261724-0.28732307699320075i           -1.60482773553792+1.1767747747773516i             -3.6376178731144776E-7-4.960804887244755E-7i         -0.0017547542182819948-0.002393047759801963i         -0.002802843186715771-0.0038223801026751394i         3.522538704193852E-4+4.803865560580601E-4i
6300                                              1.5182290738795525-1.309676703607i                1.1268653850207795-0.9720729027350531i            0.11984202252063945-0.10337985730134717i          -1.3096045984851243+1.1297100438259902i           -5.71856715789162E-7-6.629189399345966E-7i           -0.0021396160392912-0.002480327602105441i            -0.003182912861973127-0.0036897585742830937i         0.0016118810926503962+0.0018685563635348012i
7100                                              1.3938380254668514-1.4414096388995277i            0.9430572369043987-0.9752437273711633i            -0.15359117218146634+0.1588332302514785i          -0.7569208614905929+0.782754527940181i            -9.003604049442529E-7-8.70645328840211E-7i           -0.0025892000494337833-0.002503747295041514i         -0.00349500868065265-0.003379661039418064i           0.0029447292886081583+0.002847542812673203i
8000                                              1.240291986762005-1.5754802140263566i             0.7389091599487644-0.9385989540263767i            -0.39431023023448336+0.500872353085547i           -0.061351567300799444+0.0779317946139153i         -1.406788843073414E-6-1.1074902201995003E-6i         -0.0030893947372688108-0.0024321165714843453i        -0.0036472344419786395-0.002871274175298924i         0.0038288519750650923+0.003014252023475046i
9000                                              1.0547526276030514-1.7052351184297019i            0.5255758794703829-0.8497067687891674i            -0.560561569994775+0.9062686834631929i            0.5362751464076757-0.867004441522484i             -2.1660920291904427E-6-1.3398101145888445E-6i        -0.0036134261025036855-0.0022350411594706716i        -0.0035307376168555605-0.0021838951933999436i        0.003573483497612861+0.002210335142231426i
