% Model:              Lossy_duct_simulation.mph
% Version:            COMSOL 6.2.0.290
% Date:               Mar 25 2026, 12:01
% Table:              Table 12 - Point Evaluation 2
% freq (Hz)                                       Total acoustic pressure (Pa), Point: 6            Total acoustic pressure (Pa), Point: 7            Total acoustic pressure (Pa), Point: 8            Total acoustic pressure (Pa), Point: 9            Total acoustic pressure (Pa), Point: 10           Total acoustic velocity, z-component (m/s), Point: 6 Total acoustic velocity, z-component (m/s), Point: 7 Total acoustic velocity, z-component (m/s), Point: 8 Total acoustic velocity, z-component (m/s), Point: 9 Total acoustic velocity, z-component (m/s), Point: 10
49.99999999999999                                 1.9973032103030888-0.02662409281315741i           2.000316911442374-0.026700971539401857i           2.0031309641149764-0.026805649801721655i          2.003276155358684-0.026998348998724376i           2.0033117139442673-0.026999279657604944i          8.948796905156449E-6+3.771995707138982E-4i           7.472528273014259E-6+2.66528139310489E-4i            2.4747877478261356E-5+1.1509931897837775E-4i         9.204416659149439E-6+5.28528021145803E-5i            4.742788717037003E-12+3.52299815593021E-10i
56.10092271509817                                 1.9954385368498848-0.029633091443397923i          1.9992263031928232-0.02973781157269156i           2.0027591955914015-0.029878996473872002i          2.0029415720034422-0.030096915202324784i          2.00298628756043-0.030098211190882924i            1.0889864176142098E-5+4.225799114612008E-4i          9.045645078449439E-6+2.9849493330089366E-4i          2.9904245300499907E-5+1.2677196510483253E-4i         1.1341969475228346E-5+5.857057770918457E-5i          5.9352785064222505E-12+3.949691421287786E-10i
62.94627058970836                                 1.9931465220531834-0.032954208801363634i          1.9979063520057974-0.033096231782235704i          2.0023406131360324-0.03328549521295591i           2.0025696247502824-0.03353232632085373i           2.0026258431802586-0.03353412612093078i           1.3199171646311587E-5+4.7333800079334923E-4i         1.0897090143284502E-5+3.3423629391754017E-4i         3.58892577888109E-5+1.392103584971326E-4i            1.390762653374039E-5+6.473114503038825E-5i           5.660457252696273E-13+3.369739282891061E-11i
70.6268772311377                                  1.9903297504733086-0.036619602447771044i          1.9963101702655595-0.03681144915205014i           2.001874662014652-0.03706368349803621i            2.002162136654312-0.03734378553254419i            2.0022328004308965-0.03734627726401753i           1.5940492854415252E-5+5.301050281062422E-4i          1.3068836791422616E-5+3.74200155634732E-4i           4.275286911060605E-5+1.523777027190934E-4i           1.695374113909723E-5+7.131335915310254E-5i           6.890316061606212E-13+3.742365382695882E-11i
79.24465962305565                                 1.9868656238799811-0.04066610588943674i           1.9943785993406287-0.04092439122632232i           2.0013604226952166-0.04125878935569454i           2.0017211552490255-0.04157734161248418i           2.0018099530112337-0.04158077931717111i           1.9193851128344745E-5+5.935866819737943E-4i          1.5613695148329183E-5+4.1889139429076156E-4i         5.0521427915791864E-5+1.6622456842789113E-4i         2.052298173328351E-5+7.827916260489213E-5i           8.687934603933585E-13+4.2281084377817976E-11i
88.91397050194612                                 1.9825990982395296-0.04513550835303294i           1.9920362327293903-0.045482395062362464i          2.0007957394109184-0.04592382442839936i           2.0012482236317437-0.046287027623042834i          2.00135977821639-0.046291752302407015i            2.3062221213469255E-5+6.645697262407989E-4i          1.8600642250186215E-5+4.68878270304632E-4i           5.9188437444655304E-5+1.8069332348181666E-4i         2.4639800640467386E-5+8.557424850099523E-5i          1.0788788208359018E-12+4.6950869880219305E-11i
99.76311574844398                                 1.9773334144668382-0.05007405719992173i           1.9891862223051129-0.05053931367891174i           2.0001759016898117-0.05112027178560768i           2.0007432351328847-0.0515356064566379i            2.0008833391700107-0.05154207314180922i           2.7679699656935866E-5+7.439266855451853E-4i          2.2121352873562185E-5+5.247978403843994E-4i          6.870380165952355E-5+1.9572586629167647E-4i          2.930015394171898E-5+9.313177172576507E-5i           1.3630317712712862E-12+5.2938252110251426E-11i
111.93605692841699                                1.9708187757486335-0.05553113248569615i           1.985703988066627-0.05615504789185897i            1.9994921768332845-0.0569184537059817i            2.0002031770760604-0.057395011926080174i          2.0003790890696287-0.057403824637650036i          3.322089773883373E-5+8.326182100195278E-4i           2.6297668327319087E-5+5.873603382297669E-4i          7.896277454441959E-5+2.1127704633847074E-4i          3.446086176573327E-5+1.0088100848712123E-4i          1.6943245995550954E-12+5.944359005494653E-11i
125.59432157547896                                1.9627390083127723-0.06155701514467214i           1.9814300608063975-0.06239451415193604i           1.9987306369208566-0.06339767538075067i           1.9996212160381448-0.06394658360216898i           1.9998420334815712-0.06395854106081356i           3.9911326423511584E-5+9.316924350207598E-4i          3.128977288442544E-5+6.573524152811793E-4i           8.979730654951027E-5+2.2733539005838742E-4i          4.003086551904231E-5+1.0876183163441923E-4i          2.139886483024828E-12+6.67696844307773E-11i
140.91914656322274                                1.9526954056374564-0.06819958057802322i           1.976161473514838-0.06932599856419895i            1.9978709593463644-0.07064620810918398i           1.9989858160569316-0.07128116153794924i           1.9992629468166239-0.07129731820618712i           4.8038664416941776E-5+0.0010422802871146116i         3.730500557441476E-5+7.35639079621082E-4i            1.0097398671865968E-4+2.4395126836118628E-4i         4.58674102530615E-5+1.1674474513672717E-4i           2.6765938622311544E-12+7.495133512015797E-11i
158.11388300841895                                1.9401874880736254-0.07549982724649565i           1.9696416717893628-0.07701896877853022i           1.9968854986217095-0.07876134264932254i           1.9982802054634135-0.07949927583013976i           1.9986279645246026-0.07952102563985937i           5.796506790900984E-5+0.0011655854701141314i          4.460753408305642E-5+8.231642277475591E-4i           1.1220331479049403E-4+2.612700429083699E-4i          5.1780273181814994E-5+1.2485452351276944E-4i         2.729842126826897E-14+8.248434042895386E-13i
177.40669461678763                                1.9245898294110801-0.08348588748395074i           1.9615483277613899-0.08554121069221772i           1.9957384006321983-0.08784960279434556i           1.9974819873809713-0.08871152857545475i           1.997918352181045-0.08874072276504484i            7.014077325747022E-5+0.0013028668341302267i          5.352931102472941E-5+9.20949151014681E-4i            1.2316355962887926E-4+2.7956460217252283E-4i         5.7546042542190766E-5+1.3319357213105383E-4i         4.5774508295823117E-14+1.182850692649404E-12i
199.05358527674863                                1.9051241540448003-0.09216507842872158i           1.9514784628090442-0.094955146462956i             1.9943846306409583-0.09802729163193334i           1.996562798788945-0.0990393562665768i             1.9971103657800786-0.0990784725406819i            8.511931352611682E-5+0.001455409955462047i           6.448293575707814E-5+0.0010300881645554677i          1.335391973876286E-4+2.992601988813495E-4i           6.293238820563967E-5+1.4196040893768908E-4i          5.4883250295559054E-14+1.1467758571742684E-12i
223.34179607548148                                1.8808259475443205-0.1015131223410761i            1.938930207178928-0.10531285716852434i            1.9927687515227765-0.10942133174620285i           1.995487891634256-0.11061615829795761i            1.9961750839086887-0.11066854600184726i           1.0357436215491594E-4+0.0016244828380433853i         7.79770180913583E-5+0.0011517394542256852i           1.430694760803211E-4+3.209446451554217E-4i           6.77293649794377E-5+1.514586014234381E-4i            6.904716292631055E-14+1.3764557785199457E-12i
250.5936168136362                                 1.8505049038110433-0.11145947254541619i           1.923280393716748-0.11664926212928257i            1.9908232196999978-0.12217046230852827i           1.9942154489145643-0.12358889479505626i           1.9950780371090664-0.12365913082747493i           1.2631785384316358E-4+0.0018112689653561008i         9.463467172364584E-5+0.0012871087300314029i          1.515997253693357E-4+3.4536075729119564E-4i          7.178302612501308E-5+1.620941310503518E-4i           7.828600890733607E-14+1.3591731870600998E-12i
281.1706625951745                                 1.8126989558390143-0.12186718141273842i           1.9037571880361444-0.1289725423183801i            1.9884659622298844-0.13642672334293504i           1.9926954453901802-0.13812013931951056i           1.993778456945368-0.1382145427872717i             1.543181633236392E-4+0.002016768063133298i           1.1521558189677979E-4+0.0014374219037137264i         1.591275153897584E-4+3.7338225223636424E-4i          7.502619680573177E-5+1.743617572766673E-4i           1.0793351720029193E-13+1.6123131672237516E-12i
315.47867224009644                                1.7656224033189205-0.1325052606036047i            1.8794069981137544-0.14225054417972036i           1.9855969548148078-0.15235712071222765i           1.9908678213396942-0.1543905526493668i            1.9922279297010235-0.15451792457496827i           1.8871573194923166E-4+0.0022416515135037255i         1.406417664404191E-4+0.001603881476255311i           1.6583830469344628E-4+4.059781027187252E-4i          7.750281047540569E-5+1.8882343116379837E-4i          1.2912894418966883E-13+1.775493443152541E-12i
353.97289219206897                                1.70711010029637-0.14301089944806133i             1.8490551314563-0.15639140027797718i              1.9820934933148615-0.17014527313278469i           1.9886597144779412-0.17260167081779565i           1.9903682196437105-0.1727743508841363i            2.3083115059996368E-4+0.0024860549841362175i         1.7202643825207537E-4+0.0017875991721582937i         1.7212913248359523E-4+4.4417151470722653E-4i         7.938462668646414E-5+2.0608259874714416E-4i          1.826604878784801E-13+1.9404904948168247E-12i
397.16411736214064                                1.6345621774346362-0.152838349482706i             1.811260186423601-0.17121597354040272i            1.9778038336019226-0.18999271109613894i           1.985981485760692-0.1929787950710028i             1.9881280205638006-0.19321416343732822i           2.8215678662195273E-4+0.0027492856463151986i         2.1070400684092193E-4+0.0019894945469570114i         1.786221170410635E-4+4.889982918625173E-4i           8.098112353514478E-5+2.2675742705258813E-4i          2.0954547677745373E-13+2.208417651624716E-12i
445.6254690668729                                 1.544897961116055-0.1611910480338017i             1.7642632245366119-0.18641907079407116i           1.972538947769093-0.21211939908640332i            1.9827213607295673-0.2157737133480657i            1.9854184829562453-0.2160963157857876i            3.443169813495708E-4+0.0030294159689550617i          2.582569375720687E-4+0.0022101459127224087i          1.8617070934671124E-4+5.414668866521589E-4i          8.274404218236321E-5+2.514545397855299E-4i           2.7577476340162103E-13+2.543603286169618E-12i
499.99999999999994                                1.434534229116778-0.16693402170856178i            1.7059344907129106-0.20151569708580255i           1.9660621730415924-0.23676292852213007i           1.9787385483870117-0.24126692230563693i           1.9821274063885024-0.24171146618688463i           4.189728398490755E-4+0.0033227315036021103i          3.165314726386414E-4+0.002449575955560413i           1.9586105310792195E-4+6.025206876969669E-4i          8.526761991506284E-5+2.8074393964178004E-4i          3.44403901134792E-13+2.825970296920971E-12i
561.0092271509814                                 1.2994127402338214-0.1684856296873958i            1.6337232804183284-0.21576818327613304i           1.9580766172861606-0.2641757897934513i            1.9738547901009864-0.2697690751543398i            1.9781120777602814-0.27038463931388i              5.076351450509404E-4+0.0036229987390824074i          3.876287326427083E-4+0.0027069502104158567i          2.090099623142152E-4+6.730029289320739E-4i           8.928503817168354E-5+3.1513601560517615E-4i          4.271482227467784E-13+3.1377836530382724E-12i
629.4627058970837                                 1.135116053419308-0.16369242596792977i            1.5446208532899377-0.22808996335906895i           1.9482101629365076-0.29462003823160077i           1.9678442496749264-0.3016214213982819i            1.9731906926435656-0.3024773550772471i            6.113323938743881E-4+0.003920524951473077i           4.738496954270861E-4+0.0029801624361068587i          2.2716141823414093E-4+7.536252678708162E-4i          9.566209613085154E-5+3.550623520682354E-4i           5.530835197764656E-13+3.606693349226573E-12i
706.2687723113777                                 0.937130116579022-0.14970044208023858i            1.4351528577759145-0.23692265319863678i           1.9359978605932053-0.3283585416939702i            1.9604215470564657-0.3371950591410573i            1.9671321801916788-0.3383892295753306i            7.300609037838275E-4+0.004201002501961342i           5.775611093871582E-4+0.0032652780555053693i          2.5208545623244373E-4+8.449408826831174E-4i          1.0539088037228095E-4+4.0086224490056975E-4i         7.043533666946253E-13+4.065613737378645E-12i
792.4465962305569                                 0.7013372508497403-0.1228536797636379i            1.3014274847569745-0.2400857367482354i            1.9208614082155118-0.36564167411713794i           1.9512275216264319-0.3768887341459744i            1.9596440151189132-0.3785590401629796i            8.619229537700068E-4+0.0044441777536628185i          7.009332089819379E-4+0.003555807435788564i           2.857855321778221E-4+9.473204623226335E-4i           1.1958832726366117E-4+4.527752990760681E-4i          8.881916952509005E-13+4.577273967698197E-12i
889.1397050194613                                 0.42485209709237814-0.07868084380611327i          1.1392796580174036-0.234604367052156i             1.9020854025825755-0.40668778886979196i           1.9398120822902074-0.42112468975139694i           1.9503573282835536-0.42346511789023344i           0.001001845250179262+0.004622480067227085i           8.454781545998259E-4+0.003841789631985653i           3.3052091144862485E-4+0.001060924841274047i          1.395055460526508E-4+5.109372320792681E-4i           1.1229969926494374E-12+5.175638076163578E-12i
997.6311574844393                                 0.10733851413785774-0.012080333374828531i         0.9445708376930934-0.216533482234349i             1.8787902450093297-0.451655010682543i             1.9256133269585085-0.4703416465201271i            1.9388083705955146-0.4736246413863961i            0.001139783060480815+0.004699918901252974i           0.0010112906016347745+0.004108692795172844i          3.888479433813299E-4+0.0011856629893449435i          1.6655252098891294E-4+5.753722699488416E-4i          1.4392973161805428E-12+5.874711728650896E-12i
1119.36056928417                                  -0.24705103411940552+0.08211343688625658i         0.7137280960060747-0.18082034068258077i           1.8499021327670677-0.50060087899475i              1.9079320636065389-0.5249834241327033i            1.924415188816351-0.529591017587073i              0.0012583956114050469+0.004631844241279484i          0.0011958627034489514+0.004336193975597508i          4.6367879249984366E-4+0.001321120711614368i          2.0233960267963954E-4+6.459729382115975E-4i          1.840636056199108E-12+6.670408106780691E-12i
1255.943215754791                                 -0.6270287595648575+0.20790370913033382i          0.4446315109586205-0.12128934615845623i           1.8141216074961692-0.5534251813999639i            1.8859009524158363-0.5854810181807536i            1.9064482114434766-0.5919480597606559i            0.0013304003224003688+0.004366600246891112i          0.001392327261194735+0.004497010107981878i           5.583501418382311E-4+0.0014664445854032733i          2.4873347576189847E-4+7.224574419714544E-4i          2.3467139575669417E-12+7.552219129084514E-12i
1409.1914656322274                                -1.0109195821747408+0.3658709933308038i           0.13797539870387612-0.0309007003099501i           1.7698938181346144-0.6097899864123537i            1.8584476748834389-0.6522251116401859i            1.8839932185412605-0.6612991129761326i            0.0013162982370554597+0.0038506768668236185i         0.0015870028861602054+0.004556142806131531i          6.76689246433807E-4+0.0016201661383034418i           3.0792261046963136E-4+8.04295497794793E-4i           3.01901697398055E-12+8.589933860591817E-12i
1581.1388300841895                                -1.3633334364998595+0.5494827453198327i           -0.20078645284682048+0.0974656264971282i          1.7153862289290018-0.6690093645004093i            1.8242517554606756-0.7255248326712138i            1.8559047172388685-0.7382484133186001i            0.0011640724537960523+0.003039549953047519i          0.001756230623487273+0.004471204348017736i           8.230601278300729E-4+0.001779950519088609i           3.8248596567099923E-4+8.905935509280473E-4i          3.912961953476677E-12+9.810881373489735E-12i
1774.0669461678763                                -1.6330973764564507+0.739802447391126i            -0.5588931593699861+0.2693204606880466i           1.64848355565838-0.7298994347510813i              1.7816950501590756-0.8055465598924623i            1.8207470452261605-0.8233702329673795i            8.139292949393822E-4+0.001916588766851468i           0.0018628046514815235+0.0041949286775795685i         0.0010023653520415204+0.001942249995706077i          4.7545745639169254E-4+9.79927860756915E-4i           5.1061046703554165E-12+1.1293474643283348E-11i
1990.5358527674864                                -1.7550551124435407+0.8992363903850247i           -0.9133535690627931+0.4854661539876817i           1.566816723250913-0.7905772374169684i             1.7288073717670247-0.8922229320263344i            1.7767202484320694-0.9171578014026851i            2.1305456547270242E-4+5.212690327397063E-4i          0.0018529745185187753+0.0036814978053849603i         0.001219962724052727+0.0021018366264830913i          5.903741859847211E-4+0.001070108373536268i           6.714111122061148E-12+1.3020050567251979E-11i
2233.417960754817                                 -1.6598843003276822+0.966871704346502i            -1.228387768952226+0.7369670668150664i            1.467855494727611-0.8481960414369395i             1.6632136932796513-0.9851167803649533i            1.7215701115956785-1.0199380616706315i            -6.532484918810608E-4-0.0010162379586505985i         0.0016562538522041203+0.002898728328595618i          0.0014814244950125174+0.002251187422552767i          7.312845550576012E-4+0.0011578498787338932i          8.904101330386987E-12+1.5007954866826565E-11i
2505.936168136362                                 -1.2969037155023357+0.8614842913453871i           -1.4548790428365264+0.9980115680111918i           1.349116355324708-0.8986108527108259i             1.582101560762808-1.0832204714829232i             1.6524902135564035-1.131732328900763i             -0.0017096282806222216-0.0024465131108778585i        0.001192290829098497+0.0018479042321422274i          0.0017920169640448943+0.0023797148432725492i         9.026706961336173E-4+0.0012383259558379463i          1.1891308641693152E-11+1.737002609523522E-11i
2811.706625951745                                 -0.6723503484949889+0.5030158652622574i           -1.5347752966820425+1.2176830926495652i           1.2085659433008866-0.9359932256985488i            1.4822468376895999-1.1846770015875057i            1.5660387852878308-1.2520448703592508i            -0.002724960908543457-0.00340668506120781i           3.916044075332576E-4+5.909064813879128E-4i           0.0021557236588219688+0.0024728956329548805i         0.0011092127274282743+0.0013045937650193393i         1.6038456654764715E-11+2.0059191984895778E-11i
3154.7867224009647                                0.10479140565364875-0.13443836545350762i          -1.4145499831177355+1.3144395503176172i           1.0453181647545855-0.9524693411395185i            1.3601484477923897-1.28643319258236i              1.458100293394473-1.3795786717307674i             -0.0032695987253280197-0.003505520293256874i         -7.615327461332758E-4-7.216575161661307E-4i          0.002573606732491713+0.0025114528156141595i          0.0013553022735516044+0.0013469010934043116i         2.1803179892175717E-11+2.3042417757019836E-11i
3539.72892192069                                  0.7995774522588612-0.9359421338756307i            -1.0712327881829777+1.1819300519651046i           0.8607060516648818-0.9379234804294357i            1.212304614284584-1.3838554749289587i             1.3238956193196179-1.5118860575371662i            -0.002783129518619423-0.002527333464868566i          -0.002159862115464529-0.0018390295811567797i         0.0030412960322143325+0.002470850294485577i          0.0016441899819054652+0.001351894777728034i          2.9877350990376096E-11+2.616280688918075E-11i
3971.6411736214104                                1.1077059045706859-1.5648722448019712i            -0.5489512031684124+0.7203447337779595i           0.6597859113452231-0.8801575844368577i            1.0356528820588788-1.4702923440041507i            1.158023592739871-1.6448879111178232i             -8.802890541414569E-4-7.208297630973963E-4i          -0.0034911449019335967-0.002448219982677618i         0.003545292866276487+0.002321516941136502i           0.0019765382477329885+0.0013017581490073012i         4.116809110124743E-11+2.8981425150556063E-11i
4456.2546906687285                                0.8437433966330161-1.5072996705055577i            0.010626446736190323-0.09191207630397784i         0.45337270907896343-0.7657269039874763i           0.8283601769919372-1.5365202849023287i            0.9546904296640616-1.7720863698061065i            0.0020580854751940034+0.0010413523475045652i         -0.004197840619901795-0.0023008412098934803i         0.00405764782554594+0.0020308677045556603i           0.002347919253020956+0.0011735639767530312i          5.6920900895826844E-11+3.0668819442694713E-11i
4999.999999999999                                 0.19962946289854955-0.41788200425776545i          0.3848415800419475-1.090105741415712i             0.26054610983877063-0.5822169981190243i           0.5913904347845428-1.5703664572288345i            0.7086094707299881-1.883591428474813i             0.004350226945507395+0.001643802398242037i           -0.0035957866233878185-0.0014359410481992081i        0.004529590179035389+0.001569453198837095i           0.0027450170455790915+9.39824679359417E-4i           7.863639220682422E-11+2.9584206879049704E-11i
5610.0922715098195                                -0.23737312791329143+1.239037569109398i           0.38917745821297295-1.8433793217410528i           0.11060635344340672-0.3229721241558707i           0.3307340432805181-1.5573830977853254i            0.4166041877599691-1.9656942997059286i            0.003564263458355797+8.410228385080659E-4i           -0.0012988770407964746-3.805478429137E-4i            0.004887389341956013+9.230177320063335E-4i           0.0031413574018653153+5.711809779983834E-4i          1.0792842289643426E-10+2.2873401882959298E-11i
6294.6270589708365                                -0.09213190221913593+1.9292803126431632i          0.09632101616193905-1.7635131885135047i           0.042560992522722+0.005633189723077607i           0.059462883560769265-1.48268997513805i            0.07925478387395694-2.0008691448719875i           -8.333952540319131E-4+6.851565150824788E-5i          0.002077265394821916-5.0389940791626496E-6i          0.005033786830046846+1.0974340430800982E-4i          0.0034928798218023353+4.130870969239549E-5i          1.460514636569809E-10+5.78520582588712E-12i
7062.687723113769                                 0.01839861888578152+0.4302523599474137i           -0.03990505523578105-0.5697032420647706i          0.09986455978662816+0.3750196128195667i           -0.19998676660893683-1.3341928265778507i          -0.2962319714991882-1.9681405988283818i           -0.004596010505145263+7.044615234011233E-4i          0.004505462150080846-6.991884732816213E-4i           0.004860226669404855-7.960788549033217E-4i           0.0037341416022084097-6.630202651242835E-4i          1.928666054622748E-10-2.9028763065244354E-11i
7924.4659623055695                                -0.6314138151804891-1.62396177128465i             0.4400870672950397+1.0666077525323654i            0.3169025389040304+0.7266076912881493i            -0.4154282259487863-1.1091282870711938i           -0.6932832315634704-1.8466573733301153i           -0.0020721820376434857+6.685684876003684E-4i         0.0036282424380096327-0.0012882558915400064i         0.0042829840029009565-0.001644120755987852i          0.0037823693469662446-0.0015277828910328682i         2.450124430040567E-10-9.198324060493706E-11i
8891.397050194613                                 -0.5591928581068735-0.9006517536578913i           1.085373555315497+1.6208677906504831i             0.69721555926801+0.9725021860743284i              -0.5491260680455039-0.820554676365153i            -1.0859997180628413-1.6192813029002915i           0.003291357601270239-0.0022874649776056894i          -3.0166390138213563E-4+3.3755304474101107E-4i        0.003296686060825135-0.0022123627888693967i          0.003547505939782457-0.002499518257804031i           2.930305048188618E-10-1.9652624485012564E-10i
9976.311574844403                                 1.3089095979594267+1.1257206284426562i            0.44240230593151025+0.4452648974924586i           1.1885335557497478+1.0129581804933616i            -0.5656669918808587-0.5031034837125975i           -1.4402459906209757-1.27731036046863i             0.001567447175047497-0.0016366592066712614i          -0.0029632858361152464+0.0034141390875947453i        0.002037660994631588-0.002249245543444421i           0.0029531355867742897-0.0034758881709215346i         3.172688879438511E-10-3.577399662102339E-10i
11193.605692841687                                0.3770409788968335+0.22180840372380684i           -1.4673734375171958-0.668348026491789i            1.6678421676761443+0.7733880537956364i            -0.44423772993274113-0.2135557240893004i          -1.7179553392380924-0.8209827153302832i           -0.0019723191616270643+0.004221983147117412i         -0.0012403814031278267+0.002434763462244984i         8.199971130749911E-4-0.0015703707199771146i          0.00195726591163356-0.0043090271918266605i           2.813860202010662E-10-5.888158160051657E-10i
12559.43215754791                                 -1.8813319655962402-0.26029928251695567i          -1.312661848939298-0.20200691969882664i           1.9497263386106656+0.2582874256764184i            -0.19132511859386353-0.0274637289485413i          -1.8771901400862774-0.2576680668185501i           8.173652474757572E-5-0.001261179739306299i           4.0761587012567627E-4-0.003512655011613025i          1.1429916508493723E-4-1.926098567530461E-4i          5.74148374693312E-4-0.0048109376833805045i           1.2239961423976105E-10-8.917179241922012E-10i
14091.914656322273                                1.625043085677706-0.3708447786578268i             1.4724392600625114-0.3414216290791568i            1.833248117556698-0.38750878086237467i            0.1429561114090087-0.031852042387704484i          -1.8628348932107321+0.39880500157539706i          -4.7634811505438787E-4-0.002519197197465306i         -5.924158893881748E-4-0.003023975880597445i          4.2598373511017965E-4+0.0015107906188143749i         -0.001096678971965445-0.004753330439046143i          -2.6352247272512913E-10-1.2309249710290807E-9i
15811.388300841894                                -0.7110994837841101+0.5321598512569857i           0.7201211212698432-0.46735626997883833i           1.222266793551495-0.8285286477021585i             0.4353309378441281-0.3050077330308255i            -1.5891866949987183+1.10805593604687i             0.0024252462153662637+0.003533852210750342i          0.002503239572238702+0.003523310335289522i           0.0019897457393074076+0.0026846534954025583i         -0.0027900416112113286-0.0038836108054125717i        -1.021523683213509E-9-1.4650805862382065E-9i
