% Model:              Lossy_duct_simulation.mph
% Version:            COMSOL 6.2.0.290
% Date:               Mar 25 2026, 12:34
% Table:              Table 12 - Point Evaluation 2
% freq (Hz)                                       Total acoustic pressure (Pa), Point: 6            Total acoustic pressure (Pa), Point: 7            Total acoustic pressure (Pa), Point: 8            Total acoustic pressure (Pa), Point: 9            Total acoustic pressure (Pa), Point: 10           Total acoustic velocity, z-component (m/s), Point: 6 Total acoustic velocity, z-component (m/s), Point: 7 Total acoustic velocity, z-component (m/s), Point: 8 Total acoustic velocity, z-component (m/s), Point: 9 Total acoustic velocity, z-component (m/s), Point: 10
49.99999999999999                                 1.0051921752241322+0.06400734215952045i           1.0063995952740308+0.0413195875718288i            1.0072224476883611+3.2047036014273004E-4i         0.9978263920109942-0.007531893992378364i          0.9977266437193885-0.013470357910930276i          0.0024215985529398997+1.567974753770933E-4i          0.0024245144601336747+1.0110790670483016E-4i         0.004233341742744751-6.003491363725192E-4i           0.004451382089732642-7.347218835252659E-4i           0.0024240208036840896-3.272665159714782E-5i
56.10092271509817                                 1.0046173243709702+0.07184923766609695i           1.006136059712242+0.0464014568019575i             1.0071709003273677+4.040432356051795E-4i          0.9977303809827699-0.008400112395658495i          0.9976061693197348-0.015059359409555306i          0.0024204029252818957+1.757900656848172E-4i          0.0024240761105207456+1.1333068550881387E-4i         0.00419006987622276-6.596372896420519E-4i            0.004399052306977387-8.072501903742729E-4i           0.0024237281065302794-3.6587179154477576E-5i
62.94627058970836                                 1.0039060028557818+0.08065078949733505i           1.0058161820242792+0.05210997555258865i           1.0071177151188124+5.066014725708066E-4i          0.9976217872232095-0.009362941885631831i          0.9974674359535631-0.016829627328503415i          0.0024188682582843013+1.9706763357597406E-4i         0.002423495423347481+1.2702201032335317E-4i          0.004137879784076103-7.211724251416942E-4i           0.004336012851687811-8.825918889968145E-4i           0.0024233910451705552-4.0888303631934095E-5i
70.6268772311377                                  1.003025510817109+0.09052638602673767i            1.0054278874171059+0.0585205750429024i            1.0070650930438798+6.304457522272232E-4i          0.9975003071099005-0.010430960637264898i          0.9973089575941527-0.018801940657080615i          0.002416900766816288+2.2090499788403008E-4i          0.002422729525448293+1.4236074070191876E-4i          0.004075573308898987-7.836983744600052E-4i           0.004260834843987912-9.592623366461044E-4i           0.0024230060152555803-4.568012386717095E-5i
79.24465962305565                                 1.0019344604559821+0.10160260712188648i           1.0049557393947486+0.06571683066643484i           1.0070156920171565+7.774778730605347E-4i          0.9973656303363541-0.011616367086213563i          0.997129041513393-0.020999871609407503i           0.00241438312391683+2.476104474548104E-4i            0.0024217250335823817+1.5954896675594862E-4i         0.004002099934614032-8.454967745101637E-4i           0.004172261852375499-0.0010352283379081832i          0.002422568901534557-5.10200911508881E-5i
88.91397050194612                                 1.0005801814768356+0.1140192136853394i            1.0043797214831007+0.07379123459548714i           1.0069724489038712+9.490325221528392E-4i          0.997217238134143-0.012933197526276453i           0.9969255620851032-0.023450152346330976i          0.002411169324542457+2.775292416623041E-4i           0.0024204161911850347+1.7881489672498627E-4i         0.003916721082775683-9.043642749240993E-4i           0.004069403819941724-0.001107877686737473i           0.002422074539682855-5.697315392583475E-5i
99.76311574844398                                 0.9988954747613505+0.12793025364221097i           1.0036737117945072+0.0828461635060574i            1.0069383599005697+0.0011458073474149835i         0.997054194038258-0.014397442453632076i           0.9966957189675684-0.026182971897939764i          0.0024070783224338305+3.110468215985744E-4i          0.002418722591409835+2.0041566025992674E-4i          0.0038192083198577494-9.57650667101254E-4i           0.003951973504514952-0.001174059101731431i           0.002421516126207209-6.361265602728168E-5i
111.93605692841699                                0.9967945799416122+0.143505216384633i             1.0028035960419868+0.09299502770669205i           1.0069162220951304+0.001367878711188122i          0.9968749476330875-0.01602708847109115i           0.996435791330928-0.029232237782072772i           0.002401885914190314+3.485915793317736E-4i           0.002416546156554404+2.2464001291035805E-4i          0.003710051712849941-0.0010023829346639975i          0.00382053898329737-0.001230223426357497i            0.0024208846211731553-7.102097859805076E-5i
125.59432157547896                                0.9941682406403594+0.1609301508283573i            1.0017249977163576+0.10436359556702458i           1.0069083814869746+0.0016148073455552387i         0.9966772112633557-0.017842108416468536i          0.9961409337507035-0.0326358311995374i            0.002395314341403097+3.906369320790846E-4i           0.0024137670841136486+2.5181088727511974E-4i         0.003590637529273433-0.001035490547140615i           0.0036767449069260065-0.0012726868043071806i         0.0024201682524773198-7.929015481091808E-5i
140.91914656322274                                0.9908777331720703+0.180408595638752i             1.000380604166273+0.11709145453434833i            1.0069165484532592+0.0018858199019060593i         0.9964579746323142-0.019864455408929598i          0.9958050594397398-0.036435913414656275i          0.002387019061962217+4.3770240695073265E-4i          0.002410238495642844+2.8228777060963073E-4i          0.0034633418425502036-0.0010541253892482024i         0.0035234385509259596-0.0012980114927811487i         0.002419352232015812-8.85226178212692E-5i
158.11388300841895                                0.9867475875593904+0.20216207979048284i           0.9986969483347649+0.13133353405693152i           1.0069416449847035+0.0021800495442061496i         0.9962136049716948-0.02211812808511136i           0.9954207370103316-0.04067934387478377i           0.0023765718549580215+4.903532830637776E-4i          0.002405779283120636+3.1646886000278083E-4i          0.003331487188671253-0.0010560379587527947i          0.003364635074557083-0.0013034621179310365i          0.0024184185032657436-9.88322556712408E-5i
177.40669461678763                                0.9815567660072955+0.22642986805489546i           0.9965805592930973+0.1472615987563609i            1.0069837323809756+0.0024968288569762265i         0.9959400326956007-0.024629362839228994i          0.9949790810917482-0.045418251961506236i          0.0023634395324612237+5.491981449790944E-4i          0.002400164801567846+3.5479290312629883E-4i          0.003199131621708889-0.0010399400667047817i          0.0032052804437166724-0.001287456044799668i          0.00241734548185866-1.103456414790316E-4i
199.05358527674863                                0.975027961444907+0.25346745472038396i            0.9939133063124067+0.16506554851257663i           1.0070420248052372+0.0028360029359555173i         0.9956329482919204-0.027427010068025504i          0.9944695503753157-0.05071079959098833i           0.0023469573431041365+6.148834570905226E-4i          0.002393114891041218+3.977406204583715E-4i           0.0030707013234997334-0.001005768208310009i          0.0030508192965067174-0.0012499041018419247i         0.00241610755592724-1.232041187617933E-4i
223.34179607548148                                0.9668146483213713+0.28354314752531645i           0.9905467308464981+0.18495433558750585i           1.0071150107178144+0.003198257106908701i          0.9952879354945259-0.030543078058967714i          0.9938795733003543-0.0566220992800595i            0.0023262960924218487+6.880837861173808E-4i          0.002384278649270526+4.458354298325227E-4i           0.002950526790244149-9.54774694497864E-4i            0.0029066346223840123-0.0011923495969250525i         0.0024146741823673863-1.3756588179333372E-4i
250.5936168136362                                 0.9564854627605834+0.31693177936573963i           0.9862950899915219+0.20715618492123597i           1.007200695807303+0.0035853951682707458i          0.9949004747515995-0.034013430710395906i          0.9931939367046678-0.06322526232512883i           0.002300422071449172+7.694858335645872E-4i           0.0023732153621824213+4.996431575906771E-4i          0.002842377084500405-8.894158744283476E-4i           0.002777470818659016-0.0011178616764369734i          0.002413008400240094-1.5360855721543851E-4i
281.1706625951745                                 0.9435054574270494+0.35390426192197316i           0.9809267428188914+0.23191772193495244i           1.0072969439705857+0.004000512864201798i          0.9944657687093208-0.03787857515868902i           0.9923938871952257-0.07060251184091082i           0.0022680490278302644+8.597635599361771E-4i          0.0023593709562942083+5.597701314668228E-4i          0.002749088781047947-8.130632434966978E-4i           0.002666958625838059-0.0010307068501650084i          0.0024110646474724347-1.7153190962410623E-4i
315.47867224009644                                0.9272138240280284+0.39471126305395127i           0.9741534260203729+0.25950149278762374i           1.0074018600247807+0.004448014100181339i          0.993978386221746-0.04218447583789539i            0.991455928639188-0.07884630378941374i            0.0022275818218486115+9.595405094909628E-4i          0.002342049369597726+6.268586704867525E-4i           0.0026723543616054097-7.296089331913784E-4i          0.0025773255165409304-9.358799869726049E-4i          0.0024087858392993298-1.9156056516185207E-4i
353.97289219206897                                0.9067978685386484+0.43955875243823944i           0.9656168968022955+0.2901812273413022i            1.0075141244605532+0.004933458260574056i          0.9934317521997134-0.046983347736156686i          0.9903503134070105-0.08806041575810421i           0.002177052069828922+0.001069333795025968i           0.0023203782238643213+7.015783838603969E-4i          0.0026126847815942282-6.430531902949845E-4i          0.002509316052060376-8.385991650105202E-4i           0.002406099702734629-2.1394665610958213E-4i
397.16411736214064                                0.8812634814252661+0.48857246017753797i           0.9548724070621909+0.32423400212674114i           1.0076331810933665+0.0054632864848220405i         0.9928175152599934-0.0523344136764148i            0.9890392131139498-0.09836098733940701i           0.0021140471601800792+0.001189472047436875i          0.0022932681113590155+7.846108554050881E-4i          0.0025695164107393015-5.571458506893709E-4i          0.002462292135540182-7.438531030628198E-4i           0.0024029143322753885-2.3897234862110215E-4i
445.6254690668729                                 0.8494032501808728+0.541747392067593i             0.9413685790601943+0.36192816585806137i           1.0077592379423561+0.006044526848599276i          0.9921248341654922-0.05830464444751697i           0.9874745502864978-0.10987751838413376i           0.0020356359362558164+0.0013199770569862963i         0.0022593648036636394+8.766242804728054E-4i          0.002541410345250062-4.7512045150336366E-4i          0.0024344544358868474-6.560513849257486E-4i          0.002399112921850952-2.66952268486972E-4i
499.99999999999994                                0.8097648482511082+0.5988773915004771i            0.9244234355714426+0.40350541598793316i           1.0078930876502952+0.0066845954788491944i         0.9913395746952879-0.06496952012889645i           0.9855954115976013-0.12275383734921035i           0.0019382974851165167+0.0014603958711189348i         0.002216993720416717+9.78233383976467E-4i            0.0025262937757689966-3.9952754908648494E-4i         0.002423126661414088-5.787896059918603E-4i           0.0023945474802201565-2.982358533788728E-4i
561.0092271509814                                 0.7606247550456638+0.6594584346204363i            0.9031967072132815+0.44915473849983595i           1.0080358434941563+0.007391280564121494i          0.9904433976121209-0.0724138555743911i            0.9833249375346871-0.1371490452281574i            0.0018178649172115873+0.0016095670956683596i         0.002164096504653236+0.0010899385090660447i          0.0025217083951788915-3.321555919699838E-4i          0.0024250616224770283-5.147200085693172E-4i          0.002389031274226912-3.332096463445214E-4i
629.4627058970837                                 0.699976040181767+0.7225581013748282i             0.8766590744300348+0.4989750035067842i            1.0081887037952288+0.008172930973107456i          0.9894126693603528-0.08073272002992951i           0.9805665110630555-0.15323841041121583i           0.0016695047738698998+0.0017653024845723i            0.002098160673391538+0.0012120359570430238i          0.002525046000493085-2.7402416019062605E-4i          0.002436744942964921-4.6551458857177475E-4i          0.0023823295690979917-3.7229946978477194E-4i
706.2687723113777                                 0.6255445189018508+0.7866430643309483i            0.843559904006408+0.5529218874906121i             1.0083528639932369+0.009038796487837586i          0.9882171207996249-0.09003246175567242i           0.9771990281119706-0.17121414240829444i           0.0014877664424647248+0.0019239637836394228i         0.002016145664050816+0.0013444894223490706i          0.002533758810357413-2.2543788705927173E-4i          0.002454678829821472-4.3191227368593633E-4i          0.0023741481378046544-4.1597230561882356E-4i
792.4465962305569                                 0.5348557321365777+0.8493574988296985i            0.8023964791404571+0.6107335148538323i            1.0085296329115807+0.00999941369317783i           0.9868181529668175-0.10043182231382435i           0.9730709676633198-0.19128589424534995i           0.0012667562995893457+0.0020799173620811083i         0.0019144126024638246+0.001486749586083148i          0.0025455322368162117-1.8609102251081308E-4i         0.002475625528024128-4.1384268282804344E-4i          0.0023641188542026653-4.647375154769865E-4i
889.1397050194613                                 0.42538673764285156+0.9072499358662529i           0.7513901012240439+0.6718279375971051i            1.008720746604617+0.011066917768098728i           0.9851666888653245-0.1120630999981941i            0.9679929435099207-0.21368073911760066i           0.0010005199698288007+0.0022248597063280313i         0.0017886716547024092+0.0016375058081348414i         0.002558407398974759-1.5520870784381193E-4i          0.0024967871359512176-4.106111067052905E-4i          0.0023517815971511244-5.191467844656169E-4i
997.6311574844393                                 0.29485205107040235+0.9554573926692825i           0.6884782476048531+0.7351645900499281i            1.0089288068034246+0.012255188916792559i          0.9832004657942981-0.1250732993587177i            0.9617283912346373-0.23864223449235236i           6.837536319566847E-4+0.0023470327564322217i          0.0016339708901613652+0.0017943509302202844i         0.0025708451947855948-1.3170455263394296E-4i         0.002515903792027126-4.2111701448610257E-4i          0.0023365616242118437-5.797918470389746E-4i
1119.36056928417                                  0.14169154574470022+0.9873786581061543i           0.611337889463453+0.7990617549230379i             1.0091577356930856+0.013579800643015278i          0.9808406599676921-0.13962518831049164i           0.9539820344356535-0.2664280292184741i            3.1300924772419164E-4+0.0024304015708740824i         0.0014447655962416823+0.0019533388442389693i         0.0025817337980316643-1.1433106314567514E-4i         0.0025312671026585217-4.4407077839361293E-4i         0.002317741549803639-6.472986737705796E-4i
1255.943215754791                                 -0.03415392805464061+0.9944108030303983i          0.5174639034735375+0.8609639666270636i            1.0094131482988713+0.015057804153284778i          0.9779877264278505-0.15589817505734027i           0.944385780696824-0.2973052786548171i             -1.1140095951946618E-4+0.0024539663742917917i        0.0012151286093417322+0.002108417396064608i          0.0025903524505202927-1.0180362569481082E-4i         0.0025416635202112946-4.78176789859193E-4i           0.002294427078917238-7.223163322081913E-4i
1409.1914656322274                                -0.2300858630581525+0.9658939823154296i           0.4043389888097481+0.9171591446255821i            1.0097025862354831+0.016707432553520973i          0.9745163029283741-0.1740889047640488i            0.9324817106918011-0.33154288400946474i           -5.825837034096363E-4+0.002391551294839717i          9.391919895473537E-4+0.0022507312850153518i          0.0025963106662766893-9.288879658557881E-5i          0.0025462743019800593-5.22264723345302E-4i           0.002265505678368776-8.054981322353352E-4i
1581.1388300841895                                -0.4392413904886988+0.8895190127113735i           0.269747910988523+0.9624585207500987i             1.0100356299037414+0.018547818030142164i          0.9702689766965678-0.19441144746871328i           0.9177018748584651-0.36939923198992936i           -0.0010831812013677076+0.0022126787751516586i        6.119486380966829E-4+0.0023678192410606807i          0.0025994809119999312-8.645862456081157E-5i          0.0025445598187742195-5.753674745972945E-4i          0.0022295974918896447-8.974718392952143E-4i
1774.0669461678763                                -0.6484652590810708+0.7526018852225598i           0.11230808488070367+0.9898785577684784i           1.0104239665293953+0.020598776303151167i          0.9650486371787587-0.2170968838261478i            0.899344730850463-0.41110363291287344i            -0.001580533447612662+0.0018855107302749759i         2.305858300708767E-4+0.0024427901523379008i          0.002599936222073976-8.151974015794217E-5i           0.0025361477771294163-6.36756607723237E-4i           0.0021849980937855276-9.987945778229517E-4i
1990.5358527674864                                -0.8361296715565082+0.5447944249705777i           -0.06769396871118005+0.9904110327879995i          1.0108815213224525+0.02288063590863943i           0.9586090602319912-0.2423919802516352i            0.8765483300688498-0.45682900295625334i           -0.0020216007094239563+0.0013832627995405487i        -2.03441027271625E-4+0.0024536735386774607i          0.0025978963597488216-7.722710559597952E-5i          0.002520733145452477-7.059500872041365E-4i           0.002129613344209197-0.001109886462083554i
2233.417960754817                                 -0.9705522798023999+0.2628901387879936i           -0.2670662481162442+0.9530452282275662i           1.0114247331604649+0.025414002583402342i          0.9506432983388837-0.2705564666550433i            0.8482609035205362-0.5066524762966056i            -0.0023295479435366884+6.957696960373783E-4i         -6.813868322694034E-4+0.0023733262468092604i         0.002593680801545951-7.288911147266876E-5i           0.0024979881313874326-7.827036549124019E-4i          0.0020608879258037544-0.0012309349021996073i
2505.936168136362                                 -1.010578328227016-0.08182333497296734i           -0.47801365257945744+0.865323404218393i           1.0120729769798815+0.028219284200800557i          0.940769405492298-0.30185817541896215i            0.8132104826735411-0.5604995529625308i            -0.0024058627234588804-1.5252617215915734E-4i        -0.0011831399909750055+0.002170564679500341i         0.0025876653806488695-6.796624367919862E-5i          0.0024674764913087655-8.669904815489372E-4i          0.0019757315355564894-0.0013617589096235382i
2811.706625951745                                 -0.9110149610205053-0.4541527147547225i           -0.6860334443787962+0.7148651262968726i           1.0128490255123366+0.031315790436909574i          0.9285130335060136-0.33656494603427844i           0.7698768900256514-0.6180661173182422i            -0.0021444997912717766-0.001079025742201495i         -0.0016722962878529468+0.0018135846477620465i        0.0025802409070253777-6.206239943012197E-5i          0.0024285672755015673-9.589677998362515E-4i          0.0018704508334234176-0.0015016196386026656i
3154.7867224009647                                -0.636590681268817-0.7863436917077143i            -0.8677324617465079+0.49245189516972676i          1.0137793473959793+0.03472028076098606i           0.9132865612327539-0.37493172200119296i           0.7164722545251321-0.6787113459510236i            -0.0014666287986329894-0.0019202503548469308i        -0.002091296182297926+0.0012771615312531504i         0.0025717745610795866-5.490698101976965E-5i          0.0023803462400480216-0.0010589261629068982i         0.001740702101794899-0.0016489602020661044i
3539.72892192069                                  -0.18755746736686962-0.977287078323817i           -0.9894317676198677+0.19730811657119687i          1.0148940445315102+0.038444918253489065i          0.8943647755065136-0.4171807207351106i            0.6509406928012875-0.7413136112897699i            -3.8257413529687966E-4-0.0024268704879152245i        -0.002358867491580256+5.553469669148355E-4i          0.002562576965648643-4.632666515933629E-5i           0.0023215261049811062-0.0011672165005356396i         0.0015814904680813762-0.001801055583864532i
3971.6411736214104                                0.3650354161336497-0.912280812692593i             -1.0083154279076487-0.15511100890482976i          1.016226340399931+0.042494485226973217i           0.8708576877236122-0.4634721542268185i            0.5709943545242775-0.8040818731436036i            9.257104034451269E-4-0.0023078924432244734i          -0.0023741200420748583-3.192078686938952E-4i         0.002552879087521888-3.620762949536755E-5i           0.002250358248497779-0.00128415093958312i            0.0013872574739699488-0.0019535544064820335i
4456.2546906687285                                0.8502291322546881-0.5183842450417109i            -0.879062580766068-0.5236850470135175i            1.017811296308874+0.04686220802456457i            0.8416813465865167-0.5138627020040958i            0.47421166991217695-0.8643176685044951i           0.002042224285373903-0.001363535822981456i           -0.0020342222943777427-0.0012507513454399837i        0.002542822763539442-2.445173305229124E-5i           0.002164547438148566-0.0014098735355517786i          0.001152119765557884-0.0020999006735408264i
4999.999999999999                                 1.0138476260552236+0.14248575895790044i           -0.5698185796121185-0.8340801346313604i           1.0196820043875563+0.051523449109044675i          0.805527294963116-0.5682474003447453i             0.3582353264109753-0.9181280861172613i            0.0023701183209336413+2.811450091187499E-4i          -0.0012740847075930482-0.002058577970019781i         0.0025324654096176174-1.093143346008445E-5i          0.002061168745520048-0.0015441922622738036i          8.703500773741778E-4-0.002230636424837459i
5610.0922715098195                                0.6394224139801625+0.7867352722195557i            -0.09034601554567563-0.98119203321367i            1.021860344755934+0.05642913899575475i            0.760833994176174-0.6262766143037929i             0.22112644603543463-0.9601022838765537i           0.0014320571113499072+0.001941037363460896i          -1.3273391855943585E-4-0.0024773976344853858i        0.0025217978568549473+4.556720101469451E-6i          0.001936591971889656-0.0016863514047732063i          5.372377102108536E-4-0.0023326158116902217i
6294.6270589708365                                -0.20591752328419627+0.9529856894494394i          0.4711677872049112-0.8549049779316028i            1.0243437098512727+0.061503001962603825i          0.7057721925477946-0.6872407661954989i            0.061953972966945464-0.9829986520843953i          -5.566026531688737E-4+0.002442737551786347i          0.0011655691716902714-0.0022147002390816664i         0.0025107864661026973+2.2341644463857055E-5i         0.0017864415490068902-0.0018347244679741785i         1.5052046110909848E-4-0.0023882450276640037i
7062.687723113769                                 -0.9536561881139025+0.33526318281061257i          0.922387130989634-0.4026373873172137i             1.0270900696432115+0.06663774369639015i           0.6382539158435825-0.7499250875083049i            -0.1183016034855855-0.9775460095026637i           -0.0022320577147517382+9.353990869254873E-4i         0.002165221835544486-0.001105421296861489i           0.002499452367065372+4.2904253203485835E-5i          0.001605614654416281-0.0019864303559218137i          -2.874197528125264E-4-0.0023749992722253i
7924.4659623055695                                -0.7736326128515115-0.6667623924977597i           0.997935543758561+0.2758706424670925i             1.0299840040556214+0.07169170383195776i           0.555968158800755-0.8124172936806301i             -0.3154525442097179-0.9325175153941464i           -0.0017263613503381054-0.0016592963662532504i        0.0022715415884944808+6.347877320676414E-4i          0.002487952436641911+6.686351985508174E-5i           0.0013883674872218503-0.0021368238631418335i         -7.664089229550493E-4-0.0022656022683771133i
8891.397050194613                                 0.3970040940040229-0.8855955860959204i            0.5082657507827258+0.8583376213832722i            1.0327929056697076+0.07651891362255242i           0.4564983396049116-0.8718544069911247i            -0.520352728294374-0.8353934675491143i            9.6587991042844E-4-0.0023240591596061177i            0.0011018843514591138+0.0021921933775287824i         0.0024766879884150876+9.496029443962994E-5i          0.0011286170436841103-0.002278825022039794i          -0.0012642264678755506-0.002029636477682729i
9976.311574844403                                 1.0133904347679155+0.2291462035088983i            -0.3914170928940411+0.8878195285539583i           1.0351333097129176+0.08100599561055334i           0.33753617736401087-0.9241489975072747i           -0.7168526074323817-0.6740810014927503i           0.002286169346048638+5.438971370297755E-4i           -9.351381052272734E-4+0.0023377016974014606i         0.0024664603126728114+1.27911056773364E-4i           8.20499674689001E-4-0.002402191312229948i            -0.0017416366150239018-0.0016377210792682144i
11193.605692841687                                -0.21840797837885964+0.940825337918697i           -1.0244514254089552+0.1534334494208217i           1.0364147809571294+0.08517033791228852i           0.1972570408433883-0.9636492519908796i            -0.8798343660001006-0.44027242480774026i          -5.240242193704289E-4+0.002473203425513879i          -0.0023178396796414047+4.358904453302626E-4i         0.002458521076421075+1.6618976834903383E-4i          4.593649886072342E-4-0.0024926226249047147i          -0.002137614534440187-0.001069671087556028i
12559.43215754791                                 -0.9596245482376112-0.3758534254706875i           -0.5955132714117469-0.7924381442186532i           1.0358682643393262+0.08930161992084823i           0.034934709558498186-0.9828525626676361i          -0.9744123243922596-0.1351200302941146i           -0.0021602250878269224-9.8017890989653E-4i           -0.001336802731135835-0.0020764260332726725i         0.0024545943837186225+2.096321961201431E-4i          4.340454276031416E-5-0.0025310237904314203i          -0.002367403312283793-3.282845415853489E-4i
14091.914656322273                                0.7440483837532489-0.6807075593566453i            0.6406357551469347-0.7659921916046885i            1.0326442575924308+0.0941639213502169i            -0.14810897739995552-0.9721946073823038i          -0.9581829290170839+0.22256204616181782i          0.0016667447114132067-0.0017653340765937057i         0.0014311540501463409-0.0019910261184897175i         0.0024565342837843352+2.569772385445551E-4i          -4.2384374699248146E-4-0.002493005834208464i         -0.0023279798295387255+5.407304762683515E-4i
15811.388300841894                                0.13739890620984907+0.9588444369480648i           0.8977095491916486+0.4656279932644734i            1.0261140244726625+0.10114220570107381i           -0.34714347976383336-0.9201590912580678i          -0.7896359784418991+0.5866554997155334i           3.6097161531194264E-4+0.0024956946270554923i         0.0020710520209902016+0.0012532711146933152i         0.002465574227732281+3.0543745084731313E-4i          -9.299596306368776E-4-0.0023492843000726543i         -0.0019184895498363967+0.0014253285644458742i
