% Model:              Lossy_duct_simulation.mph
% Version:            COMSOL 6.2.0.290
% Date:               Mar 25 2026, 12:35
% Table:              Table 12 - Point Evaluation 2
% freq (Hz)                                       Total acoustic pressure (Pa), Point: 6            Total acoustic pressure (Pa), Point: 7            Total acoustic pressure (Pa), Point: 8            Total acoustic pressure (Pa), Point: 9            Total acoustic pressure (Pa), Point: 10           Total acoustic velocity, z-component (m/s), Point: 6 Total acoustic velocity, z-component (m/s), Point: 7 Total acoustic velocity, z-component (m/s), Point: 8 Total acoustic velocity, z-component (m/s), Point: 9 Total acoustic velocity, z-component (m/s), Point: 10
49.99999999999999                                 1.0010589715260516+0.06441561923791392i           1.0022580817868627+0.041634996235562105i          1.0030510628489515+5.145163257700275E-4i          1.0026726560129264-0.006067370943573403i          1.0025639078360025-0.011980908964943877i          0.0024315075731856537+1.557954913267814E-4i          0.0024344428691519602+1.0033496104580705E-4i         0.0025721326405299325-9.972187411483825E-5i          0.002574696270644955-1.1908882487051968E-4i          0.002435772509306251-2.9108185378935943E-5i
56.10092271509817                                 1.0005315466594644+0.0722580228312439i            1.0020410649440952+0.04670724041817427i           1.0030529769715395+5.74990822791048E-4i           1.0026586629685856-0.006794270703534853i          1.0025357425034365-0.013427231652848554i          0.0024301967386950217+1.7478573762845002E-4i         0.002433891446861184+1.1258042438694709E-4i          0.0025669519500938964-9.164662499977464E-5i          0.00256838331910929-1.1369833165697926E-4i           0.0024357040799059685-3.262208486255419E-5i
62.94627058970836                                 0.9998668970137506+0.08105195536418945i           1.0017671017393848+0.05239689636406532i           1.0030547960029668+6.426820603764214E-4i          1.0026436456354286-0.0076093687292547296i         1.002502975061371-0.015049786697475281i           0.0024285487567267247+1.9608059510057733E-4i         0.00243319919589998+1.2631681232792234E-4i           0.0025624299851726325-8.376368926135503E-5i          0.0025626331800303413-1.0837972821018973E-4i         0.0024356244696583235-3.656414715677999E-5i
70.6268772311377                                  0.9990295622018808+0.09091134187770689i           1.0014214552352851+0.058778722333359824i          1.0030564871127192+7.185706114793149E-4i          1.0026274266700803-0.008523566275525153i          1.0024644306642942-0.01687010735429791i           0.002426476543485886+2.199559928054276E-4i           0.002432329700424076+1.4172460987377719E-4i          0.0025585674367563684-7.61953330838631E-5i           0.0025575563645482977-1.0330119912422167E-4i         0.002435530824206963-4.098669059112476E-5i
79.24465962305565                                 0.9979749503360807+0.10196310622312237i           1.000985585262026+0.06593635570505789i            1.003058056112031+8.037489150080544E-4i           1.0026097117938448-0.009549112676657073i          1.0024186197532854-0.018912353360179865i          0.0024238705667884585+2.467193656761026E-4i          0.0024312371218253993+1.590057442070071E-4i          0.002555323675722356-6.903503099265886E-5i           0.0025532014621777615-9.863888817952853E-5i          0.002435419524654236-4.5948411299982016E-5i
88.91397050194612                                 0.9966470007751841+0.1143483846678903i            1.0004361688146073+0.07396329497891489i           1.0030595414529868+8.994207068234685E-4i          1.0025900676989785-0.010699749227940527i          1.0023636567194585-0.021203628906778856i          0.002420593102366989+2.7671261287039303E-4i          0.002429863773128073+1.7838596541955412E-4i          0.0025526335638555164-6.234473145728131E-5i          0.002549562341644924-9.456249950315877E-5i           0.0024352859898574427-5.1515160938428536E-5i
99.76311574844398                                 0.9949752552475175+0.12822373509713236i           0.9997438675209758+0.08296396029054494i           1.0030610026787863+0.0010069086458477066i         1.0025678996608451-0.011990875394196953i          1.0022971556522369-0.02377433865170238i           0.0024164710375274706+3.1031505161472505E-4i         0.0024281370679892066+2.00117419255288E-4i           0.0025504213669991236-5.6156806478637326E-5i         0.0025465887896045625-9.122338903331024E-5i          0.002435124423198251-5.776080801053626E-5i
111.93605692841699                                0.9928711971349017+0.1437622793002855i            0.99887178219079+0.0930548252279751i              1.0030625105755517+0.0011276707915800375i         1.0025424282100284-0.013439741589057013i          1.002216100723111-0.02665858574237473i            0.002411286876561958+3.4794621797326744E-4i          0.002425965694400115+2.2448139529780142E-4i          0.0025486108820090194-5.0479192720549916E-5i         0.002544199762647188-8.874684966656904E-5i           0.002434927497645422-6.476820781320806E-5i
125.59432157547896                                0.9902236809182078+0.16115468193727447i           0.9977735131046328+0.10436560404067743i           1.0030641398684288+0.0012633244008316148i         1.0025126579575325-0.01506567188229145i           1.0021166818830767-0.02989461626172188i           0.002404767511074894+3.9006828723168487E-4i          0.0024232348116523003+2.5179121639632953E-4i         0.002547131443894994-4.530186877178517E-5i           0.002542297444567727-8.72294874143979E-5i            0.002434685956552578-7.263028122679287E-5i
140.91914656322274                                0.9868932394095313+0.18060982340278597i           0.9963907284944649+0.11704046711405583i           1.0030659668368176+0.0014156747553156499i         1.0024773345276932-0.01689031880399765i           1.001994087964734-0.033525314596121666i           0.0023965702353284774+4.3718777456508353E-4i         0.0024198000300573756+2.8239520691027197E-4i         0.0025459203717307973-4.060288643866847E-5i          0.0025407800898347562-8.674149240160165E-5i          0.0024343881110355323-8.145121761569447E-5i
158.11388300841895                                0.9827050141818642+0.2023549567800146i            0.9946501204166409+0.13123923994991687i           1.003068072730318+0.001586745853473549i           1.0024348858248626-0.018937952666029715i          1.0018422473678512-0.037598755437019946i          0.0023862653855837045+4.898560192774643E-4i          0.002415479877054588+3.1667963927368834E-4i          0.0025449231332360565-3.635281923564781E-5i          0.002539552047645113-8.733268756222234E-5i           0.0024340192100181946-9.134781432178758E-5i
177.40669461678763                                0.977440008542585+0.22663504897822512i            0.99245959845159+0.14713851995064836i             1.0030705511187221+0.0017788143128714448i         1.0023833425081254-0.021235783876554823i          1.0016535019402077-0.042168814597905044i          0.002373314865448804+5.486677222158511E-4i           0.0024100463787792344+3.5507148998589267E-4i         0.0025440926668480416-3.2517437786482725E-5i         0.0025385301195533-8.90407507350677E-5i              0.002433560647680428-1.0245096844277616E-4i
199.05358527674863                                0.9708243160760137+0.25371086516264957i           0.9897035384005491+0.16493259979312397i           1.0030735175239245+0.0019944384981680765i         1.0023202336428936-0.02381432761812841i           1.001418197800241-0.047295851537327904i           0.0023570457202994615+6.142565171968245E-4i          0.002403213313721818+3.9804077826549426E-4i          0.002543388885362702-2.9059153105854266E-5i          0.0025376462281941-9.189995091227353E-5i             0.002432988969663402-1.1490732449782433E-4i
223.34179607548148                                0.9625159433091497+0.283855189482963i             0.9862368677970439+0.18483405216577262i           1.003077120333205+0.002236492906573535i           1.0022424533803267-0.02670780420568708i           1.001124171470725-0.053047459343244965i           0.0023366178201843046+6.872860815655865E-4i          0.0023946215918894094+4.461021007285329E-4i          0.0025427786791900483-2.5938078054167982E-5i         0.0025368470110439063-9.594912432564872E-5i          0.0024322746244078105-1.2888110295167812E-4i
250.5936168136362                                 0.952088821609291+0.317346307721834i              0.9818777241744472+0.2070737428270943i            1.0030815515165241+0.0025082022252245735i         1.002146092687358-0.02995458605379488i            1.0007561043382438-0.059499293770486246i          0.0023109846788030327+7.684347286963379E-4i          0.0023838211161824755+4.998148471117528E-4i          0.0025422361556354145-2.311329495782297E-5i          0.0025360912969975666-1.0123810511184723E-4i         0.002431380394902808-1.445561125548994E-4i
281.1706625951745                                 0.9390136267956775+0.3544575436917677i            0.9763983782058883+0.23189994767362238i           1.0030870573976078+0.00281317936188594i           1.0020262289175108-0.033597693753523554i          1.0002947115596437-0.06673598197654954i           0.0022788464902502663+8.583705816735353E-4i          0.0023702483683254554+5.597813218890836E-4i          0.002541742620964742-2.0544482018041446E-5i          0.00253534646046527-1.078323864802994E-4i            0.002430259428043219-1.6213795854828862E-4i
315.47867224009644                                0.9226351200033116+0.395441176064679i             0.9695140681929832+0.25957610590515573i           1.003093950235441+0.0031554686029715857i          1.001876663002309-0.03768534757796208i            0.9997157229277591-0.0748521123130246i            0.0022385947161292345+9.577133263500351E-4i          0.0023531988565240482+6.266416722247122E-4i          0.002541285942167424-1.819364195329835E-5i           0.0025345844693487247-1.1581618981153309E-4i         0.002428852758617637-1.8185644771463732E-4i
353.97289219206897                                0.9021459514933763+0.44050445030063046i           0.9608693557976619+0.2903765466350001i            1.0031026218886814+0.0035395949089395366i         1.00168959052151-0.04227158070670854i             0.9989886025803567-0.08395330260246817i           0.002188248136391698+0.001066977070688867i           0.002331793478798451+7.010640608695877E-4i           0.0025408592393699764-1.6026515727459618E-5i         0.002533778161799752-1.2529435650438826E-4i          0.002427086198850659-2.0396818314181428E-4i
397.16411736214064                                0.8765573201543603+0.48977460801741735i           0.9500215983161315+0.32457925818874617i           1.0031135612311575+0.003970619930296692i          1.0014551890083014-0.04741692008389801i           0.9980749415661309-0.09415733874315917i           0.002125381415980427+0.0011864869292974884i          0.002304937831183661+7.837278871722839E-4i           0.002540459149386118-1.4013354096175719E-5i          0.0025328979973901163-1.3639355410347416E-4i         0.0024248664330607196-2.2875933076435783E-4i
445.6254690668729                                 0.844667695400752+0.5432488644340202i             0.9364211627486736+0.3624544041366056i            1.0031273769336977+0.004454204812159913i          1.001161099132522-0.053189140167687055i           0.9969264411755635-0.10559536736154299i           0.00204704928442788+0.0013162595570973337i           0.0022712735816556367+8.752969932170612E-4i          0.0025400840313057724-1.2128948176301034E-5i         0.002531909286820189-1.4926324910184428E-4i          0.0024220761180689123-2.565485172765547E-4i
499.99999999999994                                0.8050321982164762+0.6007240871470689i            0.9193881198784519+0.40424679984342565i           1.0031448271542744+0.0049966796443722365i         1.0007917719193702-0.059664093644685744i          0.9954823852912167-0.11841311406732627i           0.0019497129058035662+0.0014558349967195778i         0.0022291213366513922+9.763786257870789E-4i          0.002539732439831682-1.03520447446896E-5i            0.002530769735275413-1.6407679234294994E-4i          0.002418567742289855-2.8768978951430337E-4i
561.0092271509814                                 0.7559375174252039+0.6616996527676205i            0.8980854143104648+0.4501499167092618i            1.0031668578441664+0.005605119184643834i          1.000327647630293-0.0669266216848203i             0.9936664763187515-0.13277208129758808i           0.0018291807075953791+0.0016040440741899274i         0.0021764151051746885+0.0010874623821450068i         0.0025394020411816215-8.664396860611607E-6i          0.002529427040971794-1.810328315412383E-4i           0.0024141559384035444-3.2257552521440525E-4i
629.4627058970837                                 0.6953908492875298+0.7252458157401022i            0.871489006214679+0.5002681498630537i             1.0031946514637602+0.00628742435161915i           0.9997441234838098-0.07507154396223875i           0.9913828805964573-0.1488506541918555i            0.0016805849320862404+0.001758692711340594i          0.002110629762366352+0.0012088313741666335i          0.002539088981641304-7.049707798539519E-6i           0.0025278162580206296-2.003571428293243E-4i          0.0024086078756843403-3.616391191032268E-4i
706.2687723113777                                 0.6211368878190109+0.7898294267745398i            0.838356373733004+0.5545630549360665i             1.003229688247137+0.007052408689455379i           0.9990102568738358-0.08420472511691479i           0.9885112954542428-0.16684500637560098i           0.0014984289293825197+0.0019161431065081017i         0.00202870521274032+0.0013404353580783444i           0.002538787605373425-5.492654022472865E-6i           0.0025258566387717837-2.2230487995919833E-4i         0.002401631275152827-4.0535718439601404E-4i
792.4465962305569                                 0.5307250855976103+0.853089989708421i             0.7971962796855984+0.61277805611402i              1.003273822723376+0.007909888525833344i           0.9980871376812652-0.09444420878749994i           0.9849008112877191-0.18696964541174074i           0.0012767604853484308+0.0020707741102613747i         0.001926974826311453+0.0014817126373321116i          0.0025384903734942017-3.978075847328062E-6i          0.0025234476882686646-2.471631807076022E-4i          0.0023928594973327763-4.542508775692538E-4i
889.1397050194613                                 0.4216609843721405+0.9115636775263244i            0.7462451762575354+0.6743348619062324i            1.0033293787668243+0.008870774718907012i          0.99692584701441-0.10592140192846759i             0.9803622986627866-0.2094573639205586i            0.0010095550024731624+0.002214313596435223i          0.001801112002877217+0.0016313443861541207i          0.0025381878443086433-2.490342156133587E-6i          0.002520464169995163-2.7525403664167787E-4i          0.0023818330464683117-5.088857799234943E-4i
997.6311574844393                                 0.2916907678934292+0.9603641905995965i            0.68345951729092+0.7381937779218939i              1.0033992671899075+0.009947162570525836i          0.9954648999765935-0.11878227964713767i           0.9746590048927972-0.23455825869744157i           6.914299091194565E-4+0.002335061646842123i           0.0016461185751922112+0.0017869222757931399i         0.0025378686084764493-1.01284338019107E-6i           0.002516749786047794-3.0693730893004384E-4i          0.0023679767245493514-5.698695145834865E-4i
1119.36056928417                                  0.1392865218730004+0.9928523116003556i            0.6065391931582725+0.8026698726581694i            1.0034871305771722+0.011152414487871003i          0.993627046161191-0.13318856259988074i            0.9674950010270807-0.2625373353878338i            3.188559659652279E-4+0.0024170770193518314i          0.0014563937116847294+0.0019445092461282548i         0.0025375191104995464+4.7245728149825746E-7i         0.002512109212939086-3.4261374276427865E-4i          0.0023505715628565895-6.378459273178843E-4i
1255.943215754791                                 -0.035582696248322256+1.0003682404024938i         0.5130060460727234+0.8651986798986119i            1.0035975205634524+0.012501227052133773i          0.9913152729719127-0.14931879275390064i           0.9585010871123777-0.29367001558218964i           -1.0792756179849E-4+0.0024394987962403285i           0.0012259437996467643+0.002098076554491822i          0.0025371233176139053+1.9854921004009553E-6i         0.002506298108631673-3.82727782865796E-4i            0.00232872057821918-7.134841710860688E-4i
1409.1914656322274                                -0.23030179353552774+0.9721721544566092i          0.40037368841653154+0.9220508743905631i           1.00373611277214+0.014009669999347666i            0.9884078231244267-0.16736919574950382i           0.9472177557162519-0.32823458725843546i           -5.820738409731097E-4+0.0023763444482188694i         9.488240855323246E-4+0.0022388125936948543i          0.0025366622158320817+3.5486549139026083E-6i         0.0024990106206106678-4.277699112002274E-4i          0.0023013073821749556-7.974603645928759E-4i
1581.1388300841895                                -0.43801525530629404+0.8958487967475476i          0.2664609218667985+0.9680086326000013i            1.003909963657675+0.015695179003329684i           0.9847519987466733-0.1875541643898906i            0.9330748562711015-0.3665002638339321i            -0.001086214926447876+0.002197389909042714i          6.199419289090644E-4+0.002354328537008668i           0.0025361131220940384+5.187547038819419E-6i          0.00248986382176837-4.7827810346012594E-4i           0.0022669467745186677-8.904285818709893E-4i
1774.0669461678763                                -0.6456177955732696+0.7585833178979122i           0.10991985067906687+0.9960427264852196i           1.0041278108613334+0.017576476971168854i          0.9801564813347721-0.21010612114553898i           0.9153677378681048-0.4087090122438466i            -0.0015875774675459052+0.0018711051929285235i        2.3639589823914786E-4+0.002427845730303715i          0.002535448805255349+6.9319968245451625E-6i          0.002478378384105782-5.348378172229022E-4i           0.0022239267810057473-9.929767036152381E-4i
1990.5358527674864                                -0.831599660496121+0.5498832394927193i            -0.06893309595844263+0.9970768217183472i          1.0044004140541802+0.01967339005988229i           0.9743818529268796-0.23527440862826487i           0.8932299445730046-0.45504864430642006i           -0.0020328401221474243+0.0013710384099106729i        -2.0043769494322802E-4+0.0024375593199176255i        0.0025346364137352985+8.81747360930168E-6i           0.0024639546779187957-5.980796593132272E-4i          0.00217014231491138-0.001105561042653266i
2233.417960754817                                 -0.9644937060893384+0.26641423407652104i          -0.2668908408281619+0.9600039942062646i           1.0047409272473318+0.022006514541651045i          0.9671289671685215-0.2633227046160756i            0.8656031046300722-0.5056138111030049i            -0.0023446407658373816+6.873062828587453E-4i         -6.818590138517001E-4+0.002356557153375008i          0.002533636225806511+1.0887062431620426E-5i          0.002445843374264001-6.686735051678447E-4i           0.0021030220205985814-0.001228411579615364i
2505.936168136362                                 -1.003479417440765-0.08058830903701548i           -0.47617450943647943+0.8722389634106522i          1.0051652880641178+0.024596675305716905i          0.958024803086272-0.29452425277681593i            0.8312056595822961-0.5603504927528068i            -0.0024236302587405155-1.555593837943688E-4i         -0.0011877274010265427+0.0021539573983901097i        0.002532400289147619+1.319422570663525E-5i           0.0024231095624896457-7.473173337428221E-4i          0.0020194522979743194-0.0013613971002001883i
2811.706625951745                                 -0.9038079240133678-0.45581192105009566i          -0.6823531988793217+0.7212459330654811i           1.0056926019350616+0.0274640838332492i            0.9466054526587899-0.3291539377613782i            0.7885037568668886-0.6189783824163445i            -0.0021626249954587212-0.0010752847912868363i        -0.0016814741465376328+0.0017983164739485183i        0.0025308711146911304+1.5806624105660192E-5i         0.002394589401661837-8.347183854617341E-4i           0.001915706581991181-0.0015038366259052637i
3154.7867224009647                                -0.6306793766181451-0.7910872156481596i           -0.8621930069095726+0.4976407712319878i           1.0063454632739368+0.030627034201296335i          0.9322959409067106-0.3674759045429144i            0.7356902913499199-0.6808843483568726i            -0.001481542930912859-0.0019094047294872304i         -0.002105157406363695+0.0012647829469593845i         0.0025289807033772645+1.8811254695319343E-5i         0.002358838387072105-9.31563419271682E-4i            0.001787394418719618-0.0016542405777549545i
3539.72892192069                                  -0.18463601846289665-0.9844896842800621i          -0.9822958505598549+0.2005144868062414i           1.0071500200825487+0.034099888604535424i          0.914386634651507-0.4097249514672693i             0.6706821665757563-0.744979136918744i             -3.898632609363933E-4-0.0024104909593243135i         -0.0023768117305285196+5.476892206388083E-4i         0.0025266501893410763+2.232113069291735E-5i          0.002314070374399032-0.0010384736378653734i          0.0016294548045374686-0.0018099626319028185i
3971.6411736214104                                0.3635315844250146-0.9201411887672201i            -1.000269035840506-0.15469830222590197i           1.0081353089134835+0.03789015059267728i           0.8920061783859106-0.4560791054904784i            0.5911521333294121-0.8095090933483093i            9.299338525437094E-4-0.002290174553966116i           -0.002394475363899789-3.203160972501197E-4i          0.002523790266011148+2.6484021718777675E-5i          0.0022580868485552546-0.0011559377213783i            0.0014362335286424567-0.001966742287928655i
4456.2546906687285                                0.8441109513175367-0.5239591117866159i            -0.8713302631637132-0.5266586331797661i           1.0093312365443174+0.041994800523045266i          0.8640917531932096-0.5066195693675889i            0.4946213090754157-0.8718163326065833i            0.002058712507733664-0.001351042901577839i           -0.0020539112381870814-0.0012440545619012279i        0.0025203031551838083+3.1494765432981396E-5i         0.0021881979412958943-0.0012842132094189951i         0.0012017079377632327-0.00211812219083283i
4999.999999999999                                 1.0052999157828688+0.14230354844306944i           -0.5641451307356179-0.8404213745319504i           1.0107651033238374+0.04639622783397366i           0.8293594114027569-0.5612736367792079i            0.3786520512548741-0.9280479495998608i            0.0023932968204028486+2.818566850618315E-4i          -0.0012886028141570309-0.002044292458280518i         0.0025160896471866988+3.761269240308024E-5i          0.0021011414758552024-0.0014231847400676847i         9.19955508789956E-4-0.002254741635566064i
5610.0922715098195                                0.6332324137188079+0.7929555408260298i            -0.08866831757748825-0.9897804110324626i          1.0124564801063065+0.05105661768321809i           0.7862781508775254-0.6197370340616009i            0.2411952125101794-0.9728305777378873i            0.0014489571077435845+0.0019283528158818854i         -1.3691362525428927E-4-0.0024582685469142942i        0.0025110664701476558+4.5180886484085355E-5i         0.001993008455872283-0.0015721694380458743i          5.859974928747026E-4-0.002363545871371858i
6294.6270589708365                                -0.20470165592113237+0.9619208793505519i          0.467549385341324-0.8631797464175653i             1.0144060597617763+0.05590970842516824i           0.7330501555396525-0.6813689076883681i            0.08116152161072161-0.9989496265882275i           -5.604555543977605E-4+0.0024249298836291544i         0.0011754460927880012-0.0021965923582159597i         0.0025051914885803046+5.464185986784638E-5i          0.0018591801948860207-0.0017296508851355125i         1.971870785784473E-4-0.002427006752802594i
7062.687723113769                                 -0.9450963093406862+0.3389528955741951i           0.9141225415515144-0.4069558907985399i            1.0165741666648307+0.06085756030398762i           0.6676101723425893-0.745045375462702i             -0.10068765129947832-0.9971202703431388i          -0.0022574838279484817+9.283516413948142E-4i         0.002187870121740112-0.0010962083481214717i          0.0024984981560666163+6.656020063955173E-5i          0.001694309175222985-0.001892903582114893i           -2.4462648255382216E-4-0.002422566268617558i
7924.4659623055695                                -0.7666274867340526-0.6732231344415104i           0.9887535615750697+0.27849379910898364i           1.0188578005599618+0.06577510459553604i           0.5876689282494868-0.8089746622019742i            -0.30044409431355346-0.9560384205699775i          -0.0017479284312065875-0.0016478241317782957i        0.0022972697015815925+6.293423294179451E-4i          0.002491173886725649+8.163855753638195E-5i           0.0014924067930896217-0.002057511819948595i          -7.299487035938917E-4-0.002322760254108749i
8891.397050194613                                 0.39251603762062715-0.8942048120106909i           0.5042256494261137+0.8671439165461987i            1.0210506816817868+0.07051507505024487i           0.4908028308445565-0.8704680614955954i            -0.5093281234584386-0.862988133298612i            9.799614992669456E-4-0.002310687826154801i           0.0011137999731392154+0.0021748719681422423i         0.002483650638067539+1.0067322215799758E-4i          0.001247045413279081-0.0022167631433650326i          -0.001237449735110436-0.0020966939203859968i
9976.311574844403                                 1.0041950610116+0.2326875952555874i               -0.3863350505584994+0.8962431720414525i           1.0227903870760298+0.07495977306727593i           0.37465782188055136-0.9256472686107522i           -0.7115941204310176-0.7054703004644521i           0.0023180743848122227+5.374503942858251E-4i          -9.497743945883006E-4+0.0023227213115520366i         0.0024767086275560594+1.2450153961810091E-4i         9.518521665614651E-4-0.0023608606523867924i          -0.0017288755737753705-0.001713998578840004i
11193.605692841687                                -0.21419588734873324+0.9497136970384934i          -1.014591219757457+0.15290797607224987i           1.0235261573547105+0.07908978256091317i           0.23728980527415333-0.9691462288973514i           -0.8825265701028973-0.47446666680317484i          -5.369890953947341E-4+0.0024643697863029326i         -0.0023488765803352392+4.384323223022048E-4i         0.0024716083532304784+1.537833100550854E-4i          6.013615400795669E-4-0.0024760962278627878i          -0.0021441788873511596-0.0011527614602599855i
12559.43215754791                                 -0.9522610419352432-0.38217081699679256i          -0.5926924727051777-0.8016847014360866i           1.0224989286956563+0.08313943132518548i           0.07774361007487655-0.9937881032785986i           -0.9874401395302388-0.1699854835553201i           -0.00219243671472779-9.710801481578362E-4i           -0.0013486635532515645-0.0020618144330339905i        0.0024700752040335266+1.8871490806231456E-4i         1.9250242101970417E-4-0.002543933693440345i          -0.002399088801288451-4.129990538772093E-4i
14091.914656322273                                0.735293788561391-0.6841060681629684i             0.6323892153185927-0.7705215695215933i            1.018836554924965+0.0877688070634948i             -0.10308203121294088-0.9903846124404273i          -0.9836389368282138+0.1908249586302422i           0.0017018982529540816-0.001771591371653564i          0.0014583401001367993-0.0019893120809943506i         0.002474090060452584+2.28533463681872E-4i            -2.731398640481503E-4-0.0025403837522064345i         -0.0023898696648989243+4.636301846385905E-4i
15811.388300841894                                0.1404976293626782+0.9671371635818499i            0.8930001214615746+0.4731067248243381i            1.011811764391284+0.09425750634927563i            -0.30114033764567477-0.9477891469361954i          -0.8282875913792584+0.5639261528421676i           3.571493040699281E-4+0.0025011259346104245i          0.0020948083375319443+0.0012429349126215985i         0.0024852263780974484+2.7113888540407263E-4i         -7.859045300911159E-4-0.0024360236119205184i         -0.002012442607191938+0.00137013550309021i
