% Model:              Lossy_duct_simulation.mph
% Version:            COMSOL 6.2.0.290
% Date:               Mar 25 2026, 11:50
% Table:              Table 12 - Point Evaluation 2
% freq (Hz)                                       Total acoustic pressure (Pa), Point: 6            Total acoustic pressure (Pa), Point: 7            Total acoustic pressure (Pa), Point: 8            Total acoustic pressure (Pa), Point: 9            Total acoustic pressure (Pa), Point: 10           Total acoustic velocity, z-component (m/s), Point: 6 Total acoustic velocity, z-component (m/s), Point: 7 Total acoustic velocity, z-component (m/s), Point: 8 Total acoustic velocity, z-component (m/s), Point: 9 Total acoustic velocity, z-component (m/s), Point: 10
49.99999999999999                                 1.9988275522925452-0.023422040945814897i          2.00176772810714-0.02346503982926744i             2.004445902273706-0.02351305640990737i            2.0045638860080803-0.02352209762249724i           2.0045990172801385-0.023523289207932226i          5.241309067014794E-6+3.693883365873168E-4i           3.943270296478277E-6+2.586344415920354E-4i           3.821197218958731E-6+6.177666396641605E-5i           1.909354801892926E-6+3.045161468886129E-5i           6.236722509964443E-13+6.28283685309954E-13i
56.10092271509817                                 1.997288219011406-0.026236796127573715i           2.0009883371305413-0.0262953677816609i            2.0043585865879323-0.026359002671016533i          2.00450672934382-0.026369804840873104i            2.0045509236215415-0.026371271501566776i          6.391022345826177E-6+4.1429336181093395E-4i          4.7592309762461976E-6+2.9009607665411084E-4i         4.111352323363113E-6+6.91354752034425E-5i            2.0665258278727034E-6+3.406117661414887E-5i          6.233770310567411E-13+1.1347976703925958E-12i
62.94627058970836                                 1.9953550870922574-0.029386428320526882i          2.00001139271666-0.029466608347898403i            2.004252601282306-0.029551580153154632i           2.004438647910498-0.029564543576274003i           2.0044942520078983-0.0295663706156768i            7.827469636689958E-6+4.6463112680263417E-4i          5.776239661676782E-6+3.2537893489848526E-4i          4.439151436373529E-6+7.73927751598395E-5i            2.2386933489919597E-6+3.8109389393821926E-5i         6.170389177101371E-13+9.160410400223108E-13i
70.6268772311377                                  1.9929266067905078-0.03290851838778388i           1.9987858920308734-0.03301876386032358i           2.0041231471135568-0.03313303200540366i           2.0043568437476926-0.033148669826295364i          2.004426810569458-0.03315097541684397i            9.62427076920278E-6+5.210459758644299E-4i            7.0460602187139265E-6+3.649425587302198E-4i          4.817803310489691E-6+8.666057268738242E-5i           2.4315006951197713E-6+4.265261555484295E-5i          6.03088140082078E-13+1.0950918558976267E-12i
79.24465962305565                                 1.9898751294325472-0.03684387377054269i           1.9972476712159892-0.036996048245955565i          2.0039641706751397-0.03715071702988133i           2.004257783414524-0.03716969696432673i            2.0043458278388666-0.037172644415944124i          1.1873852170954537E-5+5.842532151343976E-4i          8.633783811573114E-6+4.092997657147243E-4i           5.2640896895534804E-6+9.706356450431547E-5i          2.6528321897152825E-6+4.775369712242767E-5i          6.001867396736294E-13+1.6288792885358012E-12i
88.91397050194612                                 1.9860402714004597-0.04123636504448396i           1.9953160324426737-0.04144712530954542i           2.003768043324772-0.04165771752218778i            2.0041370102560663-0.04168092031309267i           2.004247805452026-0.041684734991426574i           1.4692162741695384E-5+6.550446243235662E-4i          1.0621229274078859E-5+4.5902199606717985E-4i         5.798970692563224E-6+1.0874069510113281E-4i          2.9131666734535354E-6+5.348251119713646E-5i          5.846168845570979E-13+9.453286051089441E-13i
99.76311574844398                                 1.9812206188690795-0.046132512804578245i          1.992889505925989-0.046425260361001294i           2.0035251467361403-0.04671351216449978i           2.003988897582745-0.04674211317046354i            2.0041283222739468-0.04674710609967754i           1.822451891778212E-5+7.34293347630763E-4i            1.3111192264929286E-5+5.147448343377152E-4i          6.448433492076368E-6+1.218469658576533E-4i           3.2259425428383283E-6+5.991664361432286E-5i          5.748746699086331E-13+1.3604679268900756E-12i
111.93605692841699                                1.9751634040305828-0.05158070561229842i           1.9898405539022221-0.05198833117022743i           2.003223361007152-0.05238472180853664i            2.003806347640054-0.052420304832367086i           2.0039817974754035-0.052426905881641436i          2.2652817878954296E-5+8.229575704539801E-4i          1.623274417133242E-5+5.771735362025022E-4i           7.244673885815417E-6+1.3655547948613933E-4i          3.6079847607974106E-6+6.714223138544408E-5i          5.480889102193739E-13+1.3298822523903113E-12i
125.59432157547896                                1.9675516764163479-0.05762987330050372i           1.9860089448431606-0.05819861312238428i           2.002847415013533-0.058745929788407654i           2.0035804071877843-0.05879064615897952i           2.0038011866754952-0.05879945090316209i           2.8204386576530027E-5+9.220820952457257E-4i          2.0147821280891312E-5+6.470882833306185E-4i          8.227687446622518E-6+1.53059681456227E-4i            4.080068058714765E-6+7.525500406941753E-5i           5.330320362558143E-13+1.5189448872001103E-12i
140.91914656322274                                1.957988427571422-0.06432737286031541i            1.9811934870721584-0.06512222099717338i           2.0023780697346374-0.06588058083710693i           2.003299784248403-0.06593737231157094i            2.0035775998387577-0.06594920830762252i           3.516275617473593E-5+0.0010327965390612742i          2.5059390863367587E-5+7.253487514462625E-4i          9.447329026003572E-6+1.7157576499166705E-4i          4.667704763780944E-6+8.43615326497787E-5i            5.317910848192909E-13+2.021065190432484E-12i
158.11388300841895                                1.9459770411761164-0.07171574760042063i           1.9751417424378623-0.0728280400387746i            2.0017910942140102-0.07388196153299972i           2.0029502428652517-0.07395487340876956i           2.00329982301937-0.07397089393577853i             4.3880650347189364E-5+0.0011563083201981677i         3.1221528113911826E-5+8.128973744583295E-4i          1.0965898493819616E-5+1.9234523553218356E-4i         5.402250219551513E-6+9.458067555178571E-5i           6.349673575669366E-13+5.841242349201847E-12i
177.40669461678763                                1.930897367487002-0.07982787289671116i            1.96753726454859-0.08138589361817312i             2.001055978778559-0.08285424695480788i            2.0025138414683994-0.08294886871890976i           2.002953715500651-0.08297068524168698i            5.4795419684733675E-5+0.001293887792011859i          3.8951773322477425E-5+9.107603628889934E-4i          1.2861340026814757E-5+2.1563762577453586E-4i         6.322414759820533E-6+1.0604515878583239E-4i          6.429701772371109E-13+5.983690885950649E-12i
199.05358527674863                                1.9119766768415307-0.08867986294205914i           1.9579838249396169-0.09086363779099099i           2.000134319058816-0.09291363480525419i            2.0019679751761776-0.0930377210416822i            2.002521451923561-0.09306759027435266i            6.844705422979404E-5+0.0014468419110308741i          4.864618664921753E-5+0.0010200452262271826i          1.5231216482713551E-5+2.417534681247952E-4i          7.476275758804509E-6+1.189033220877866E-4i           6.88556252638552E-13+7.086257684858097E-12i
223.34179607548148                                1.888254796403976-0.09826081008989522i            1.9459860275870433-0.10132267232843353i           1.9989777925135457-0.10418951369205119i           2.0012841753097286-0.10435385941931039i           2.0019805711202263-0.10439494727702543i           8.54986010478505E-5+0.0016164712112859043i           6.079748421615676E-5+0.001141932818225419i           1.8197686927311862E-5+2.710274356831665E-4i          8.923874698143629E-6+1.3332088963261929E-4i          7.368357491463521E-13+7.962248814539192E-12i
250.5936168136362                                 1.8585428802623838-0.10851818221907092i           1.930925637530639-0.11281123781193973i            1.9975256221605586-0.11682566597663596i           2.000426600972355-0.11704534084889082i            2.001302779939317-0.11710209479565127i            1.0675836374173564E-4+0.0018040030457379262i         7.601660631092154E-5+0.0012776612915088195i          2.191380582259608E-5+3.038316705581855E-4i           1.0740509531760872E-5+1.4948279350207382E-4i         7.997910906568319E-13+8.862270938239057E-12i
281.1706625951745                                 1.8213756747479277-0.11933727696375969i           1.912032939861375-0.12535458247403816i            1.995701403676138-0.13098145065928135i            1.999350146870234-0.13127753895310176i            2.0004524508381736-0.13135621321427732i           1.3320237844720867E-4+0.002010491362852373i          9.505787842673205E-5+0.0014284981695592985i          2.6571513752197943E-5+3.4057913600721865E-4i         1.3020854076061455E-5+1.6759497746875188E-4i         9.019742051817447E-13+1.0113375926662908E-11i
315.47867224009644                                1.7749579274835157-0.1305126752683428i            1.8883525007913171-0.13894076378961961i           1.9934091388952433-0.14683289853048745i           1.997998068454066-0.14723495164848574i            1.9993847325660643-0.14734434805939298i           1.6599422345823896E-4+0.002236669944586586i          1.1884756827229444E-4+0.0015956952964408372i         3.24117389686568E-5+3.817267703808811E-4i            1.5884081316992106E-5+1.8788613116883692E-4i         1.051070278467867E-12+1.1272180958683282E-11i
353.97289219206897                                1.7171070244470468-0.14170911933778188i           1.8587029130395305-0.153500419946909i             1.9905282857288513-0.16457361496554646i           1.996299003108059-0.16512310727011878i            1.9980431743729627-0.16527562027755746i           2.0649686917900614E-4+0.0024827418143560805i         1.4851496300290825E-4+0.0017804194436451474i         3.973707919560335E-5+4.277781226894443E-4i           1.9480224746122337E-5+2.1060927536261498E-4i         1.2382381686986368E-12+1.2982831980083974E-11i
397.16411736214064                                1.6451963874222568-0.1524087591425661i            1.821630572132706-0.16887830648352076i            1.9869075937257086-0.18441533425970785i           1.9941632361735724-0.1851705310444203i            1.996356738044974-0.18538362154416038i            2.5626755639851425E-4+0.0027480825187123767i         1.8542390016162898E-4+0.0019836487532261934i         4.8927605997935386E-5+4.792850415678339E-4i          2.3998082060537872E-5+2.3604307244436115E-4i         1.464607142414655E-12+1.4333046495660528E-11i
445.6254690668729                                 1.5561081731894588-0.16184145799076202i           1.7753584208526578-0.18479374823702138i           1.9823574488695412-0.2065878979980208i            1.9914780245787238-0.20763070961021268i           1.9942360398206456-0.20792898305987567i           3.170209691611472E-4+0.003030829562091035i           2.3120068688048007E-4+0.0022060218726373524i         6.0460441113738324E-5+5.368478381270936E-4i          2.9675047294227186E-5+2.644926628266583E-4i          1.7873965211305935E-12+1.6197368445986385E-11i
499.99999999999994                                1.4462101511481953-0.16889520240185363i           1.7177321751023844-0.2007864457197917i            1.9766404008442222-0.23133832821762237i           1.9881017462488948-0.23278395500916427i           1.991568622778408-0.23320209041706277i            3.9053742359864655E-4+0.003327325412529838i          2.877510905740399E-4+0.0024476225486312004i          7.493389241132056E-5+6.011131148682179E-4i           3.680934901947132E-5+2.9628971929488205E-4i          2.2006871844285927E-12+1.8226456781631102E-11i
561.0092271509814                                 1.311381310305473-0.17200534421783698i            1.6461691949740342-0.21614341812460838i           1.9694594951251465-0.25892852465880706i           1.9838565899165859-0.26093901845118594i           1.9882130080479723-0.261525894457024i             4.784805055290801E-4+0.0036313793491379517i          3.5725394653978294E-4+0.002707677732247944i          9.309708935260616E-5+6.727681037627867E-4i           4.577527291713823E-5+3.3179125720213666E-4i          2.7368341659937134E-12+2.060955949604587E-11i
629.4627058970837                                 1.1471249624133013-0.16902568479743305i           1.557619447703902-0.22980252601370985i            1.9604439858143998-0.2896309169453931i            1.9785194345282147-0.2924342296268789i            1.9839912053223316-0.2932587330257207i            5.820718004005358E-4+0.003933318184342169i           4.421110274972249E-4+0.002984142402915636i           1.1588619504878643E-4+7.525298482822072E-4i          5.70420555755565E-5+3.713765240563675E-4i            3.426272312147E-12+2.3217370607816578E-11i
706.2687723113777                                 0.9488280114700081-0.15709343226887923i           1.4485546934568658-0.2402285275955459i            1.9491319752551304-0.32372112554176513i           1.971810489141227-0.3276378288718217i             1.9786792751782742-0.32879702466145955i           7.015491833062019E-4+0.004218815194862613i           5.448210367634614E-4+0.0032731405627907132i          1.444683530873473E-4+8.411268451112285E-4i           7.119724928639115E-5+4.154409926001643E-4i           4.3032925739388636E-12+2.6087281757813406E-11i
792.4465962305569                                 0.7122510559850086-0.1325172103587925i            1.3150120916951875-0.24525997943590622i           1.9349495350339063-0.36146630048960265i           1.9633791733835768-0.3669470010920174i            1.9719954223485199-0.36857761174337517i           8.353121106417397E-4+0.0044675334511421515i          6.677286624269592E-4+0.0035682317056873964i          1.8029449194656964E-4+9.39269768052551E-4i           8.897546482605801E-5+4.64386062078934E-4i            5.4260573566233916E-12+2.9304335970352186E-11i
889.1397050194613                                 0.43436420206622117-0.09074750733906076i          1.152732966849809-0.24193125834931908i            1.917185947902596-0.40310727277850233i            1.952786618311003-0.4107848852669845i             1.9635849540193064-0.4130793972709675i            9.786405511552037E-4+0.004651714911514432i           8.125765503919421E-4+0.003859480317999957i           2.2516185719599716E-4+0.0010476065410917968i         1.1129347700032316E-4+5.186024817948852E-4i          6.870251988045024E-12+3.303084380944323E-11i
997.6311574844393                                 0.11467063168795363-0.026538497892181427i         0.957457343363958-0.22628652257760923i            1.8949649413968424-0.4488319187170948i            1.9394840724705216-0.45959448375418016i           1.9530012597638196-0.46282370611046036i           0.0011218829802803723+0.00473502050386638i           9.79759040488066E-4+0.004132331132626389i            2.812864999454692E-4+0.001166655201161684i           1.3929267813502606E-4+5.784446809768997E-4i          8.702662753608044E-12+3.7159328718027465E-11i
1119.36056928417                                  -0.24283421462263202+0.06551517638279186i         0.725459806589556-0.1932262414852541i             1.8672122848582342-0.4987361433037434i            1.9227864451610497-0.513827876943093i             1.9396817722492545-0.5183724615132811i            0.001248083505243953+0.004672217449027221i           0.0011671452088292608+0.004366349132371846i          3.513846263274019E-4+0.0012967055773855925i          1.7438969812904237E-4+6.441920332722892E-4i          1.1066735598553047E-11+4.182973675844535E-11i
1255.943215754791                                 -0.6269740516744253+0.18978386459110208i          0.45443900190195274-0.13646883465056314i          1.8326211054342758-0.5527675901607944i            1.9018402901331364-0.5739283992605941i            1.9229176934553536-0.5803227447709465i            0.0013302336589379841+0.004410753498948461i          0.0013683166953436846+0.004533992705110195i          4.3875923204307653E-4+0.0014376777402869518i         2.1833552070764714E-4+7.15991506311488E-4i           1.4075918505132123E-11+4.704073972101541E-11i
1409.1914656322274                                -1.0160650123927741+0.34736521234755197i          0.14489165876298857-0.04877855101321163i          1.7896180888015032-0.610645610251514i             1.8755858794283453-0.6403024121993568i            1.901816211558359-0.6492955582396418i             0.0013288144167710575+0.003895850260383052i          0.0015700806218200247+0.004599781547455908i          5.473840835770066E-4+0.0015889215093683145i          2.732823660594175E-4+7.937740647813606E-4i           1.7947004662190075E-11+5.297022206736505E-11i
1581.1388300841895                                -1.3744716319809227+0.5323837084257574i           -0.19791079729795777+0.07728656991666484i         1.7363368529089565-0.6717493848584158i            1.8427138574135793-0.713276072573531i             1.8752541192915093-0.7259156748954548i            0.0011912085756973518+0.003081364143446839i          0.001749227109996035+0.004520532698912169i           6.819698715119735E-4+0.0017489374361490083i          3.41855628676169E-4+8.771345794519928E-4i            2.2938883395415143E-11+5.965608987346644E-11i
1774.0669461678763                                -1.6503852042491574+0.7266165184098777i           -0.5613153316449833+0.24771867198899294i          1.6706097497501498-0.7349649613346252i            1.8016184794779762-0.7930312762492331i            1.841822227389359-0.810778519065618i              8.560627583218631E-4+0.001948893191434916i           0.0018688106076926408+0.004247788560694429i          8.479860847252683E-4+0.0019149964740119178i          4.272248331673936E-4+9.651618813635047E-4i           2.9365026378220524E-11+6.708846812486086E-11i
1990.5358527674864                                -1.7774668622839365+0.893030783565759i            -0.9222696489946836+0.4639767228227269i           1.5899964576959023-0.7984822653097845i            1.7503514722525932-0.8795141132354285i            1.7997603996331737-0.9043993367277213i            2.6765634959738274E-4+5.365006554828503E-4i          0.0018749147389998944+0.003734105504090212i          0.0010515956350561693+0.002082634312082422i          5.331624269199037E-4+0.0010562019425441188i          3.776397673918998E-11+7.548987388083867E-11i
2233.417960754817                                 -1.6845890327180808+0.9707376276264249i           -1.2446309339265105+0.7179357909844115i           1.4918767978335774-0.859535760409655i             1.6865823041719201-0.9723084958153302i            1.746882310591492-1.0071390700129392i             -5.931496917851032E-4-0.001025750025740304i          0.0016961301822597994+0.002945298362500569i          0.0012994357215474067+0.0022449983296803366i         6.640713517290352E-4+0.001147532373953776i           4.868955065770958E-11+8.476758713798111E-11i
2505.936168136362                                 -1.3187930420286078+0.8774221111209257i           -1.4784391324680812+0.9846648767984079i           1.3736465625387402-0.9140871086325658i            1.6075715847937746-1.0704647155784481i            1.6804860768104468-1.1190974437930201i            -0.0016566082522661758-0.00248580537816918i          0.001249988377085693+0.0018804917421832118i          0.0015981424902165834+0.002392031951993271i          8.249485195048253E-4+0.0012349192301816304i          6.308993188379012E-11+9.503612344613515E-11i
2811.706625951745                                 -0.6841992971355499+0.5300958285797875i           -1.564073522007072+1.2139796410060932i            1.2330735781656093-0.9564547073950755i            1.5101688080712254-1.1722623938307253i            1.597245458253939-1.2399503071173898i             -0.0026967818391386-0.0034735985490452494i           4.631158614184906E-4+5.997982559285684E-4i           0.00195345448510371+0.0025095028619293172i           0.0010212224089695071+0.0013120190225708555i         8.214717038054768E-11+1.060751198086938E-10i
3154.7867224009647                                0.11058183331370622-0.1024462066666344i           -1.4454607899394125+1.3243702991484352i           1.0689092409788097-0.9789139717159738i            1.3908703236656548-1.274870735099009i             1.4930931745890186-1.3686834440217814i            -0.00328484705333146-0.00358478434164908i            -6.864608609130917E-4-7.462035399742387E-4i          0.0023686260455545245+0.0025779610970948635i         0.001258345712159165+0.0013695967816930274i          1.0744002009725031E-10+1.17448533339345E-10i
3539.72892192069                                  0.826389740589779-0.9119882812796163i             -1.0962688528754925+1.2077116517042787i           0.8819085650686654-0.9713656886623112i            1.2460356628178233-1.3738790879179714i            1.3631639305296888-1.503168339890599i             -0.002849782531393532-0.0025869603492576997i         -0.0020996382354593326-0.0019023766552348537i        0.0028417850357312173+0.002571939837207859i          0.001540949700134173+0.0013945973144292756i          1.41250445380309E-10+1.283190712026484E-10i
3971.6411736214104                                1.147634444445367-1.5653945243991718i             -0.5578440113837012+0.7593343912298743i           0.6764151756287262-0.9213465960076102i            1.0724122325913905-1.4627676929958249i            1.2019175871752976-1.6395983371355756i            -9.781903160679753E-4-7.200300119149059E-4i          -0.0034708289582987793-0.0025438808989723337i        0.003361972702752446+0.0024600939725924085i          0.0018713550679892218+0.0013692408094967442i         1.864614773005678E-10+1.3689558806321343E-10i
4456.2546906687285                                0.8733802298876079-1.5406542939363834i            0.02745384318798024-0.05046990707051058i          0.4624893065721476-0.8148489176771992i            0.8680244784883929-1.5325041940686444i            1.003470668133008-1.7718897728471745i             0.001987407471363475+0.0011234995561562474i          -0.004240636523712088-0.0024025817687210677i         0.0039039830267977274+0.0022072054699458503i         0.002247300884486536+0.0012703672740357833i          2.4681480162183243E-10+1.39970891447481E-10i
4999.999999999999                                 0.18937579258895848-0.46694938224298566i          0.4288694950708839-1.06601110599636i              0.2583206049911875-0.6384435631568914i            0.6333893304770901-1.5713126710019776i            0.7620734537382599-1.89093651888814i              0.004379607735315681+0.0017651177894692084i          -0.003704914985143485-0.0014953819766735312i         0.0044221932241894635+0.0017791294014862823i         0.0026585227575382894+0.0010692704188327564i         3.2676506209813816E-10+1.318665601632804E-10i
5610.0922715098195                                -0.29071674301419587+1.2214747960620105i          0.44331124380797854-1.858310085471124i            0.09251181561403378-0.3834425091239168i           0.37347746757159067-1.5646957911611348i           0.47327118887980013-1.9834978800356262i           0.003698966397375765+8.848768657916067E-4i           -0.0014316739122836515-3.444944213641228E-4i         0.0048441204533042174+0.0011533837746445454i         0.003081545405456003+7.332767335619633E-4i           4.3078941288582075E-10+1.0295321768837082E-10i
6294.6270589708365                                -0.13304453693482957+1.976450768205136i           0.12284369057464448-1.8200471452856455i           0.004595030330086617-0.053221127242221396i        0.10062227193897216-1.4970066149555175i           0.1363779799540597-2.0318288757729372i            -7.349794273497037E-4-4.654021927307145E-5i          0.0020145540389923467+1.327870520020541E-4i          0.0050693793819614145+3.384433506903446E-4i          0.0034741538797614345+2.3131736750327278E-4i         5.619578206298309E-10+3.7873763602107665E-11i
7062.687723113769                                 0.05753526701731965+0.48681395873682193i          -0.07472141907517475-0.6290337719612966i          0.04050244834192005+0.3270047816758884i           -0.16345792971434253-1.3552515249315593i          -0.24322082505449114-2.01469009246454i            -0.004701074110043328+5.679706334205247E-4i          0.004595791955663865-5.554826879138463E-4i           0.004981568050349113-6.025611353830557E-4i           0.0037718300394179614-4.5713625894944665E-4i         7.187406009429848E-10-8.662189736672773E-11i
7924.4659623055695                                -0.566898982123716-1.660373424195179i             0.36603155076021193+1.070070475880475i            0.24008148501501728+0.7009072418176097i           -0.38672344990830554-1.1343741694731841i          -0.6510160723758335-1.9087854043671153i           -0.002234969020373197+7.594047644191275E-4i          0.0038140102218956543-0.0012989317691598414i         0.00447771655451833-0.0015276340284690357i           0.003886815476131123-0.0013274014926783605i          8.891422243793122E-10-3.0311074019040016E-10i
8891.397050194613                                 -0.603278824277348-0.9647152420961886i            1.0620320181486664+1.695090826473177i             0.6145748717099355+0.9792518600652725i            -0.5296143330801463-0.8456088136742393i           -1.0613928045879297-1.694044795754841i            0.0034099889973615684-0.0021386643369926315i         -2.4561213301046314E-4+1.574356060108281E-4i         0.0035275462662451088-0.0022097385891140554i         0.0037197394338462867-0.002332370580209969i          1.0420947069601964E-9-6.527773319223016E-10i
9976.311574844403                                 1.2593243289421152+1.1869708193234079i            0.5112395817191213+0.48371931532176393i           1.118934225920171+1.0545414292013184i             -0.5536424265952026-0.5224952762025062i           -1.4389490617273661-1.357393876035927i            0.0016948634033351014-0.0017933058493298953i         -0.0031380976507506867+0.003328564268996677i         0.00224167913292734-0.0023746925394531352i           0.0031780186916442843-0.0033709327467932376i         1.1140665245332724E-9-1.1808585491356115E-9i
11193.605692841687                                0.4531468225642915+0.2345373086464261i            -1.4270292570589276-0.7340569506592958i           1.6315326879573655+0.8397495103282065i            -0.4343019424743128-0.22386296549508863i          -1.7415126628910615-0.8969247719666503i           -0.002168641722878116+0.004213132808594777i          -0.0013425057690414411+0.0026024996311847914i        9.272928785446878E-4-0.0017963925689034061i          0.002205985166477244-0.004285790311230881i           9.911248653776357E-10-1.9242698732810736E-9i
12559.43215754791                                 -1.9230293194355468-0.3207914104723422i           -1.3802197956268134-0.23081845800109174i          1.9586146328919007+0.3264699269098071i            -0.1764180917753426-0.02957928662556896i          -1.9214114201098678-0.3204349572505834i           1.8444332670401528E-4-0.0011214899790153202i         5.743194669453951E-4-0.0034561700677095382i          7.678679648884544E-5-4.456452173386517E-4i           8.112027826941797E-4-0.0048699818223238165i          4.804970916996747E-10-2.8810207999533324E-9i
14091.914656322273                                1.6318958907578627-0.30110609832325996i           1.469899823082592-0.27137880613751486i            1.8838912747962553-0.34665083356338916i           0.16738774685676283-0.030958385790110073i         -1.9201383000156391+0.35352491746666675i          -4.971863026179E-4-0.0027108429528527995i            -5.891373636466531E-4-0.0032089884253513196i         2.4804277535822854E-4+0.0013322519623691562i         -8.988647626645481E-4-0.004878105478152275i          -7.241426741551714E-10-3.932931465172448E-9i
15811.388300841894                                -0.7061182328171164+0.46103537669442085i          0.7795082248635821-0.5066544645146598i            1.2934884303174068-0.8417998007553298i            0.4696052061460721-0.30599934342731305i           -1.654936321182831+1.077919082531884i             0.0024380452530393267+0.003744994295788096i          0.0023729924890788386+0.003641064728135445i          0.00174701634619463+0.0026775460269438463i           -0.002641920297601315-0.004055291297576879i          -3.0323604669189134E-9-4.655372241298358E-9i
