% Model:              A2_RKM_film_in_duct.mph
% Version:            COMSOL 6.2.0.290
% Date:               Mar 30 2026, 17:43
% Table:              Table 1 - Global Evaluation 1
% freq (Hz)                                       S11 (1)                                           S21 (1)                                           S12 (1)                                           S22 (1)
49.99999999999999                                 0.9955957531983131-0.027914955794531127i          0.0034929277755852708-9.795661294398045E-5i       0.0034929277735833582-9.795662474636174E-5i       0.9955964404019385-0.027916371121044756i
52.96268625886442                                 0.9955310858229353-0.029551546691974236i          0.0034927017840316334-1.0369993576271108E-4i      0.0034927017810631395-1.0369994943344516E-4i      0.995531739267031-0.029553104109748738i
56.10092271509817                                 0.9954601069229521-0.03128427946523454i           0.003492453721075502-1.0978066668015777E-4i       0.003492453716882602-1.0978068244281031E-4i       0.9954607140697985-0.03128598209997869i
59.42511137185091                                 0.9953821321925942-0.03311880008370394i           0.003492181194881229-1.162186190591957E-4i        0.0034921811891503083-1.1621863722036464E-4i      0.9953826800301031-0.03312064947386549i
62.94627058970836                                 0.9952963984451034-0.03506108911229849i           0.003491881538643672-1.23034780568352E-4i         0.003491881531002536-1.2303480138325286E-4i       0.9952968738230373-0.035063084973879555i
66.6760716081662                                  0.9952020533309077-0.037117481761185546i          0.0034915517747247434-1.3025138406994735E-4i      0.0034915517647289597-1.3025140783613738E-4i      0.9952024433375835-0.0371196220203637i
70.6268772311377                                  0.9950981435793109-0.03929468926112705i           0.0034911885735715038-1.378919827646945E-4i       0.003491188560698181-1.3789200982047026E-4i       0.9950984359407261-0.03929697006916202i
74.81178280472167                                 0.9949836015925415-0.04159982117208459i           0.0034907882068177867-1.4598152887545395E-4i      0.003490788190461718-1.4598155953098754E-4i       0.9949837850759075-0.04160223704187118i
79.24465962305565                                 0.9948572302313984-0.044040408729789704i          0.0034903464939550484-1.5454645600575243E-4i      0.0034903464734046467-1.5454649061780125E-4i      0.9948572950060184-0.044042952829113684i
83.94020090612803                                 0.9947176855757005-0.046624429265383925i          0.0034898587418788866-1.6361476514260482E-4i      0.0034898587163118655-1.6361480404738387E-4i      0.9947176235213254-0.0466270937420985i
88.91397050194612                                 0.9945634575114827-0.049360331522946554i          0.0034893196767015115-1.732161139496025E-4i       0.0034893196451757317-1.732161574821764E-4i       0.9945632624261216-0.0493631079635707i
94.18245447449                                    0.9943928479233363-0.052257061989703375i          0.0034887233671381797-1.833819094718485E-4i       0.0034887233285703766-1.8338195799133002E-4i      0.9943925156133949-0.052259941925520616i
99.76311574844398                                 0.9942039462892155-0.055324092128426i             0.003488063138718208-1.9414540402158E-4i          0.003488063091879869-1.9414545784161518E-4i       0.9942034745209853-0.055327067539793225i
105.67445199183237                                0.9939946024565113-0.058571446489938415i          0.0034873314780941526-2.055417940962913E-4i       0.003487331421589964-2.0554185351331417E-4i       0.9939939907594229-0.05857451033049454i
111.93605692841699                                0.993762396331143-0.06200973176210533i            0.003486519926523496-2.1760832247213365E-4i       0.003486519858777723-2.1760838776965882E-4i       0.9937616456620387-0.06201287840971876i
118.56868528308274                                0.993504604194516-0.06565016669293987i            0.0034856189615414014-2.3038438333712976E-4i      0.003485618880782484-2.3038445473132219E-4i       0.993503716480575-0.06565339228454475i
125.59432157547896                                0.9932181613078597-0.06950461288315078i           0.0034846178656724445-2.4391163043412236E-4i      0.003484617769913281-2.439117081145932E-4i        0.9932171388949678-0.06950791554200696i
133.0362529899404                                 0.9928996204070009-0.07358560648881342i           0.0034835045808036097-2.5823408829394906E-4i      0.003483504467824774-2.58234172365069E-4i         0.9928984654573688-0.07358898636124099i
140.91914656322274                                0.9925451056364153-0.07790639075224635i           0.003482265546645285-2.7339826648830023E-4i       0.0034822654139743023-2.7339835698283663E-4i      0.9925438195212707-0.07790984990565866i
149.26913094589798                                0.9921502613867157-0.08248094939971835i           0.003480885521436713-2.8945327681938735E-4i       0.0034808853663242313-2.8945337367743655E-4i      0.992148844123977-0.08248449152188563i
158.11388300841895                                0.9917101954363929-0.08732404076046613i           0.003479347382766676-3.064509531856584E-4i        0.00347934720216037-3.0645105623808777E-4i        0.9917086452192353-0.08732767072317374i
167.48271957891376                                0.9912194156998394-0.0924512325800669i            0.0034776319060797678-3.244459739443471E-4i       0.0034776316965999987-3.244460828929127E-4i       0.9912177285599056-0.0924549558695456i
177.40669461678763                                0.9906717597987881-0.09787893730834582i           0.00347571751809641-3.4349598605985457E-4i        0.003475717276004017-3.4349610045225214E-4i       0.9906699294333652-0.09788275937349222i
187.91870214422212                                0.990060316571651-0.10362444770321919i            0.00347358002201843-3.6366173052548406E-4i        0.0034735797431802986-3.6366184974848993E-4i      0.9900583343535464-0.10362837326773605i
199.05358527674863                                0.9893773385213003-0.10970597240115396i           0.003471192291015434-3.850071678360568E-4i        0.0034711919708684236-3.850072910711266E-4i       0.9893751937016876-0.10971000478844344i
210.8482517142911                                 0.9886141441014353-0.11614267111001587i           0.003468523926068031-4.0759960234793864E-4i       0.0034685235595738623-4.075997285515146E-4i       0.9886118241919684-0.11614681163219501i
223.34179607548148                                0.9877610085985976-0.12295468888120593i           0.003465540873812625-4.315098036239873E-4i        0.0034655404554119512-4.3150993150372583E-4i      0.9877584999148575-0.12295893635451838i
236.5756294807401                                 0.9868070422439637-0.1301631888724318i            0.0034622049995588194-4.5681212267829034E-4i      0.003462204523123498-4.5681225061644824E-4i       0.9868043305775592-0.1301675392588668i
250.5936168136362                                 0.9857400540488764-0.13779038273786512i           0.003458473610171689-4.835846001643205E-4i        0.003458473068942284-4.835847262111494E-4i        0.9857371254224501-0.13779482900039638i
265.4422221154942                                 0.9845463996970083-0.14585955772128228i           0.0034542989209475393-5.11909063245425E-4i        0.0034542983074706195-5.119091850433075E-4i       0.984543241153062-0.14586408986885577i
281.1706625951745                                 0.983210811669283-0.15439509919869993i            0.0034496274600788585-5.418712067295315E-4i       0.0034496267661369012-5.418713214629106E-4i       0.9832074120411428-0.1543997045508702i
297.8310717645051                                 0.9817162096083044-0.16342250721368015i           0.003444399403691238-5.735606534153978E-4i        0.003444398620227334-5.735607577247052E-4i        0.98171256021506-0.16342717085787067i
315.47867224009644                                0.9800434887425784-0.17296840519226797i           0.003438547833796491-6.070709873356083E-4i        0.003438546950827191-6.0707107723902E-4i          0.9800395839543642-0.17297311063896714i
334.1719587843074                                 0.978171284000911-0.18306053869580519i            0.0034319979108312815-6.424997523707531E-4i       0.003431996917351847-6.424998231725552E-4i        0.9781671216289926-0.1830652686765552i
353.97289219206897                                0.9760757072601072-0.1937277615748346i            0.003424665951778511-6.799484071019532E-4i        0.0034246648356640154-6.799484532614618E-4i       0.9760712887307414-0.19373249894423086i
374.94710466622786                                0.9737300549650977-0.2050000064056087i            0.003416458404148926-7.195222249785421E-4i        0.003416457152042097-7.195222399837995E-4i        0.9737253852501847-0.2050047350879978i
397.16411736214064                                0.9711044831886549-0.21690823539857337i           0.0034072707054612506-7.613301265933432E-4i       0.0034072693026489472-7.613301027948913E-4i       0.9710995704795666-0.2169129413200562i
420.6975708225973                                 0.9681656470257624-0.22948436729260985i           0.0033969860172304855-8.054844283513347E-4i       0.003396984447514143-8.05484356777132E-4i         0.9681605021555278-0.22948903922410188i
445.6254690668729                                 0.964876301106712-0.24276117479272494i            0.0033854738220490104-8.521004885947196E-4i       0.0033854720675998403-8.521003587299193E-4i       0.9648709367435214-0.2427658050346895i
472.0304381429617                                 0.9611948579471002-0.2567721461113572i            0.003372588372059403-9.012962286901739E-4i        0.003372586413269621-9.012960282081659E-4i        0.9611892875966147-0.25677673096710985i
499.99999999999994                                0.9570749008749125-0.2715513029536629i            0.003358166977167078-9.531915022808795E-4i        0.003358164792484961-9.531912167429206E-4i        0.9570691377553784-0.27155584292678425i
529.6268625886448                                 0.9524646484152659-0.28713296589483245i           0.003342028121763239-0.0010079072810399482i       0.0033420256875292837-0.0010079068935130808i      0.9524587042795617-0.28713746557864095i
561.0092271509814                                 0.9473063672985846-0.3035514564743119i            0.0033239693996775055-0.0010655646195271023i      0.0033239666899506975-0.0010655641101576367i      0.9473002512879269-0.30355592411856486i
594.2511137185094                                 0.9415357317285511-0.32084072351722454i           0.0033037652586842777-0.001126283355343831i       0.003303762245073765-0.001126282700835213i        0.9415294493526476-0.32084517028582255i
629.4627058970837                                 0.9350811272557893-0.3390338790844636i            0.003281164548292096-0.0011901804933480398i       0.0032811611997996142-0.001190179666344955i       0.9350746795904422-0.3390383180336321i
666.7607160816619                                 0.9278628986138077-0.3581626270801946i            0.003255887868049133-0.0012573682142887168i       0.0032558841509272825-0.001257367182653134i       0.927856281793665-0.35816707193198694i
706.2687723113777                                 0.9197925422571329-0.3782565648399316i            0.0032276247183396305-0.0013279514387018346i      0.003227620595991004-0.0013279501646508236i       0.9197857473287705-0.3782610286378344i
748.1178280472163                                 0.910771846213215-0.39934233497370786i            0.00319603046216131-0.0014020248660713045i        0.003196025895085932-0.0014020233051705423i       0.9107648593728911-0.39934682873964017i
792.4465962305569                                 0.9006919823345494-0.4214426013052205i            0.003160723114940362-0.0014796693971311152i       0.0031607180607663024-0.001479667497110198i       0.900684785551203-0.42144713281748225i
839.4020090612802                                 0.88943255930496-0.4445748188984679i              0.0031212799907917735-0.0015609478335331674i      0.003121274404418665-0.0015609455329018836i       0.889425131278077-0.44457939171928684i
889.1397050194613                                 0.8768606490104783-0.4687497639160961i            0.003077234248467819-0.0016458997339834373i       0.0030772280823633076-0.0016458969604269535i      0.8768529663731974-0.4687543767771286i
941.8245447449009                                 0.8628298043983459-0.49396978440150474i           0.0030280713994328646-0.0017345352894205892i      0.003028064604139199-0.0017345319579468287i       0.8628218430372832-0.49397443103294847i
997.6311574844393                                 0.8471790940435732-0.5202267281181171i            0.002973225865266236-0.0018268280620550598i       0.0029732183901815842-0.0018268240728696987i      0.8471708303682162-0.5202313975642494i
1056.7445199183237                                0.8297321876980013-0.547499498399202i             0.0029120777032661514-0.001922706414487587i       0.0029120694977807114-0.0019227016505840857i      0.8297235996783999-0.5475041758049392i
1119.36056928417                                  0.8102965385889147-0.5757511837931152i            0.002843949659311398-0.002022043436471725i        0.0028439406744105783-0.0020220377609104752i      0.8102876063712351-0.5757558515840322i
1185.6868528308275                                0.7886627226747246-0.6049257024457657i            0.002768104757706601-0.002124645159130423i        0.002768094948158006-0.002124638412016332i        0.7886534285998891-0.6049303417544825i
1255.943215754791                                 0.7646040131070627-0.6349438981088507i            0.002683744701068342-0.002230236831365321i        0.0026837340283486838-0.002230228826531091i       0.7645943409942058-0.6349484902327653i
1330.362529899404                                 0.7378762904593181-0.6656990220975229i            0.002590009431854742-0.0023384470230086783i       0.0025899978679987117-0.002338437544443177i       0.7378662240812159-0.6657035496998106i
1409.1914656322274                                0.7082184166674184-0.6970515353655021i            0.0024859783037061624-0.0024487893174086287i      0.0024859658363009882-0.002448778115498889i       0.7082079374295848-0.6970559830890037i
1492.69130945898                                  0.6753532338654827-0.7288231684750661i            0.0023706734282819375-0.0025606413671045328i      0.002370660066852393-0.00256062815481493i         0.675342317811698-0.7288275226043364i
1581.1388300841895                                0.6389893892216406-0.760790186340729i             0.0022430659047712937-0.0026732211163137984i      0.002243051688853152-0.00267320556547871i         0.6389780036211498-0.7607944331471628i
1674.8271957891395                                0.598824234210919-0.7926758215988792i             0.0021020858074918955-0.002785560051382149i       0.0021020708167261144-0.002785541789387508i       0.5988123341269461-0.7926799440444641i
1774.0669461678763                                0.5545481019874334-0.8241418683987387i            0.0019466370039380489-0.002896473436146693i       0.001946621370539542-0.002896452043376716i        0.5545356273778599-0.8241458409542674i
1879.1870214422213                                0.5058503297887607-0.8547794712907998i            0.001775618102061978-0.003004527637450566i        0.0017756020260551652-0.003004502646032936i       0.5058372038347577-0.8547832527657687i
1990.5358527674864                                0.45242746398928596-0.8840992068261034i           0.0015879510797388618-0.003108004865023794i       0.0015879348473286376-0.003107975759588573i       0.45241359347269716-0.8841027312979901i
2108.482517142911                                 0.39399416186367137-0.9115206447913127i           0.0013826194257623497-0.0032048659623301807i      0.0013826034311938394-0.003204832183735153i       0.39397944050634676-0.9115238109792987i
2233.417960754817                                 0.3302973829323529-0.9363616995007281i            0.0011587179089844108-0.0032927123188417145i      0.0011587026801376918-0.0032926732721065134i      0.330281698646421-0.9363643592450024i
2365.756294807401                                 0.2611345380842459-0.957828248512173i             9.15516370158977E-4-0.003368748563227896i         9.155025979617277E-4-0.0033687036312654017i       0.26111778504078376-0.9578301953999548i
2505.936168136362                                 0.18637632705361618-0.9750047172704946i           6.525401667759468E-4-0.003429748480386591i        6.525287382277443E-4-0.003429697045528444i        0.18635842332758148-0.9750056768871499i
2654.422221154942                                 0.10599502981320486-0.9868466153088266i           3.696700438429462E-4-0.0034720276167907196i       3.696620779866605E-4-0.0034719690925554005i       0.10597594106632169-0.9868462390742003i
2811.706625951745                                 0.020099003711496293-0.9921763748215924i          6.726417748361145E-5-0.003491427343645685i        6.726106298623108E-5-0.0034913612196802177i       0.02007877286974942-0.9921742398714755i
2978.3107176450544                                -0.07102595472117305-0.9896842964118089i          -2.536951655460344E-4-0.0034833167774380577i      -2.53691733525676E-4-0.003483242681017517i        -0.07104717259853338-0.9896799144412355i
3154.7867224009647                                -0.16686793862949356-0.977936956317102i           -5.914286430605401E-4-0.0034426209407147725i      -5.914166303982633E-4-0.0034425387185414314i      -0.16688983817621675-0.9779297946199503i
3341.719587843074                                 -0.2666328980731831-0.9553960726969529i           -9.431601882686945E-4-0.003363885881041859i       -9.431371993181525E-4-0.0033637957052039327i      -0.2666549854643516-0.9553855906587243i
3539.72892192069                                  -0.3691818377782051-0.9204515486602435i           -0.0013048926350410581-0.003241394097371073i      -0.0013048559079348759-0.003241296598985507i      -0.36920339770767135-0.9204372524733372i
3749.4710466622787                                -0.4729628264674564-0.871473164462644i            -0.0016711640843197367-0.003069346403190859i      -0.0016711105150818675-0.003069242836199961i      -0.4729829013539198-0.8714546815725869i
3971.6411736214104                                -0.5759408423287168-0.8068860992667278i           -0.002034795666763572-0.0028421289929241797i      -0.002034721876821811-0.002842021428259275i       -0.575958232801343-0.8068632717385787i
4206.975708225973                                 -0.6755304988030433-0.7252759843823577i           -0.0023866486632929565-0.002554686463238532i      -0.0023865511290265926-0.002554578009607864i      -0.6755437959482813-0.7252489767734313i
4456.2546906687285                                -0.7685394092072185-0.6255293031788395i           -0.002715418820353171-0.0022030220566279578i      -0.002715294087375952-0.0022029170977690394i      -0.7685470692922042-0.6254987155376168i
4720.304381429617                                 -0.8511334449468071-0.507014325981165i            -0.003007508475693276-0.0017848442065517922i      -0.003007353483827518-0.0017847486351335548i      -0.8511339154785138-0.5069812964941265i
4999.999999999999                                 -0.9188394268511108-0.36980593102731235i          -0.0032470328233965107-0.0013003718121425921i     -0.0032468453693267193-0.001300293226806172i      -0.9188313278740994-0.36977220631236524i
5296.268625886442                                 -0.9666057097008546-0.21495398611402158i          -0.003416034712878112-7.532971957119271E-4i       -0.0034158140740652406-7.532450094671242E-4i      -0.9665880652633827-0.21492193159795545i
5610.0922715098195                                -0.9889462471724144-0.04478866527167228i          -0.0034950011483227345-1.5188245723480004E-4i     -0.0034947488806637878-1.518678427533977E-4i      -0.9889187484295502-0.044761185707929356i
5942.5111371850935                                -0.9801981915549293+0.13675373747027475i          -0.0034637907961959794+4.898713600465055E-4i      -0.0034635116947869193+4.898357881822536E-4i      -0.9801614555981059+0.13677339340626585i
