% Model:              A2_RKM_film_in_duct.mph
% Version:            COMSOL 6.2.0.290
% Date:               Mar 30 2026, 17:44
% Table:              Table 1 - Global Evaluation 1
% freq (Hz)                                       S11 (1)                                           S21 (1)                                           S12 (1)                                           S22 (1)
49.99999999999999                                 4.911168274443043E-4+3.248437682464123E-4i        0.9985979206664224-0.02833848190013971i           0.9985979201426507-0.02833848522763476i           4.910915131144478E-4+3.2488320584091553E-4i
52.96268625886442                                 5.015126052260523E-4+3.33260768117806E-4i         0.9985226145206767-0.029989305849456416i          0.9985226137301334-0.02998930971221732i           5.014877989299665E-4+3.333041112330328E-4i
56.10092271509817                                 5.120577247497846E-4+3.4180540802536765E-4i       0.9984408190619232-0.03173673823989003i           0.9984408179321912-0.03173674270539537i           5.120337121594771E-4+3.418526249390249E-4i
59.42511137185091                                 5.227354964364735E-4+3.505085214716799E-4i        0.9983518640689513-0.03358647484623375i           0.998351862511882-0.03358647999153719i            5.227125304960634E-4+3.5055950665432203E-4i
62.94627058970836                                 5.33533187716167E-4+3.5940708151670106E-4i        0.9982549963873953-0.03554455325069077i           0.99825499429746-0.035544559156995774i            5.335114671948785E-4+3.5946166391491013E-4i
66.6760716081662                                  5.444434057575866E-4+3.6854378495735263E-4i       0.998149368249211-0.0376173726656075i             0.9981493655013003-0.037617379422648256i          5.444230535661652E-4+3.686017318737701E-4i
70.6268772311377                                  5.554654198480866E-4+3.779662648125943E-4i        0.9980340241629639-0.039811714596215686i          0.9980340206100977-0.03981172229507797i           5.554464618120447E-4+3.780273032461092E-4i
74.81178280472167                                 5.666063512268875E-4+3.877260436701086E-4i        0.9979078862758678-0.04213476424259514i           0.9979078817451846-0.04213477298002569i           5.665886954519031E-4+3.877898762427609E-4i
79.24465962305565                                 5.778821554029037E-4+3.978772153718713E-4i        0.9977697380907998-0.04459413269481556i           0.9977697323814992-0.044594142571495465i          5.778655782190469E-4+3.979435478370775E-4i
83.94020090612803                                 5.893183476312667E-4+4.084749155898286E-4i        0.9976182064232421-0.04719787993035185i           0.9976181993021828-0.04719789104829564i           5.893024831535629E-4+4.08543490034056E-4i
88.91397050194612                                 6.009504193653334E-4+4.195736626491267E-4i        0.9974517414425478-0.04995453862612141i           0.9974517326414996-0.04995455108736237i           6.009347574939147E-4+4.1964429295430144E-4i
94.18245447449                                    6.128239279268253E-4+4.312256105073431E-4i        0.9972685946373764-0.052873138855251536i          0.9972685838487229-0.052873152760644464i          6.12807819950558E-4+4.3129821948275965E-4i
99.76311574844398                                 6.249942503917149E-4+4.434788180678914E-4i        0.9970667944971833-0.0559632336859839i            0.9970667813703694-0.055963249134426636i          6.24976923988718E-4+4.4355347396048204E-4i
105.67445199183237                                6.375260198672702E-4+4.563755865627471E-4i        0.9968441196784769-0.05923492575448247i           0.9968441038150389-0.05923494283947782i           6.375066030233572E-4+4.56452539756122E-4i
111.93605692841699                                6.504922701636349E-4+4.6995094856603747E-4i       0.9965980693677746-0.06269889484417074i           0.9965980503169763-0.06269891364991464i           6.504698240268908E-4+4.700306640704346E-4i
118.56868528308274                                6.639733347302598E-4+4.8423134186228816E-4i       0.9963258305168445-0.06636642654005231i           0.9963258077711172-0.06636644714003669i           6.639468949979834E-4+4.8431452225656125E-4i
125.59432157547896                                6.78055549807264E-4+4.992335246923306E-4i         0.9960242415624236-0.07024944198059992i           0.9960242145518996-0.07024946443337446i           6.780241741220349E-4+4.993211268351465E-4i
133.0362529899404                                 6.928298170210978E-4+5.149637453457261E-4i        0.9956897521861072-0.07436052874482242i           0.9956897202725801-0.07436055309406119i           6.927926368811421E-4+5.150569819546127E-4i
140.91914656322274                                7.083900815946978E-4+5.31417189316344E-4i         0.9953183786035736-0.07871297286704079i           0.9953183410748471-0.07871299913234929i           7.083463571344373E-4+5.315175276383829E-4i
149.26913094589798                                7.248317800228538E-4+5.485776951883943E-4i        0.9949056538002089-0.08332079196292727i           0.9949056098632022-0.08332082013750322i           7.247809530367751E-4+5.486868359800766E-4i
158.11388300841895                                7.422503054352273E-4+5.664177455769084E-4i        0.9944465720546087-0.08819876938872717i           0.9944465208277145-0.08819879943705797i           7.421920495555911E-4+5.665375889441893E-4i
167.48271957891376                                7.607395367237785E-4+5.848987052653843E-4i        0.9939355270078314-0.09336248933580467i           0.9939354675132919-0.09336252118386743i           7.60673800654977E-4+5.850313116869076E-4i
177.40669461678763                                7.803904670431873E-4+6.039712987552471E-4i        0.9933662424464401-0.09882837268217488i           0.9933661736008955-0.09882840621397948i           7.803175070740908E-4+6.041188328340804E-4i
187.91870214422212                                8.01289966157219E-4+6.235762951543101E-4i         0.9927316948726639-0.10461371337716117i           0.9927316154777299-0.1046137484275286i            8.012103675373813E-4+6.23740964310547E-4i
199.05358527674863                                8.235197044658154E-4+6.436453911383424E-4i        0.9920240268275632-0.11073671503225907i           0.9920239355581714-0.11073675137960601i           8.234343862820976E-4+6.438293786122242E-4i
210.8482517142911                                 8.471552655512999E-4+6.6410226284024E-4i          0.9912344498199124-0.11721652731713178i           0.9912343452127531-0.11721656467244738i           8.470654706752489E-4+6.643076623205792E-4i
223.34179607548148                                8.722654749418981E-4+6.848637751701737E-4i        0.9903531355861627-0.12407328162921219i           0.9903530160259628-0.12407331962858717i           8.721727431555653E-4+6.850925236562508E-4i
236.5756294807401                                 8.989119793459015E-4+7.058413222963072E-4i        0.9893690942702791-0.13132812538292366i           0.9893689579750213-0.13132816357349725i           8.988181041735762E-4+7.060951457702722E-4i
250.5936168136362                                 9.271491161534577E-4+7.269422882070437E-4i        0.9882700379617496-0.1390032540803237i            0.9882698829662516-0.13900329190747243i           9.270560880680823E-4+7.272226562102987E-4i
265.4422221154942                                 9.570241232716052E-4+7.480715853748199E-4i        0.9870422278667544-0.1471219401453i               0.9870420520046767-0.1471219769352554i            9.569340620283163E-4+7.483796840070379E-4i
281.1706625951745                                 9.885777508947904E-4+7.691332323556605E-4i        0.9856703032218894-0.1557085572412995i            0.9856701041057178-0.15570859218558727i           9.884928320492128E-4+7.694699518572609E-4i
297.8310717645051                                 0.001021845338760511+7.900318904736534E-4i        0.9841370898804679-0.16478859851586503i           0.9841368648794355-0.1647886306487032i            0.0010217677187240968+7.903978378740059E-4i
315.47867224009644                                0.0010568584170827368+8.106742586355129E-4i       0.9824233863244741-0.17438868685559344i           0.9824231325407006-0.17438871503006595i           0.0010567901638876976+8.110697892461968E-4i
334.1719587843074                                 0.0010936468782687468+8.30970183727949E-4i        0.9805077246912784-0.18453657482820618i           0.9805074389334867-0.18453659768570554i           0.0010935899141491935+8.313954548674177E-4i
353.97289219206897                                0.0011322417240294453+8.508333110187751E-4i       0.9783661042345544-0.1952611315039388i            0.9783657829886375-0.19526114744329937i           0.0011321977843054033+8.512883476327138E-4i
374.94710466622786                                0.0011726783486929251+8.70181059613431E-4i        0.9759716945046504-0.20659231280114304i           0.9759713339020556-0.20659231993703286i           0.0011726489642734197+8.7066583556506E-4i
397.16411736214064                                0.0012150002515513955+8.889337247442158E-4i       0.9732945054133109-0.21856111132656136i           0.9732941011963797-0.21856110744591462i           0.0012149867572252156+8.89448243169966E-4i
420.6975708225973                                 0.0012592630004638434+9.070124815244253E-4i       0.97030102126411-0.23119948097635312i             0.9703005687481135-0.23119946348317175i           0.0012592665700274376+9.075568541523285E-4i
445.6254690668729                                 0.0013055381869194191+9.24336128170143E-4i        0.966953795778484-0.24454023068561787i            0.9669532898110159-0.24454019653722167i           0.0013055598952783462+9.249106394590505E-4i
472.0304381429617                                 0.0013539170579575839+9.40816456887513E-4i        0.9632110051589469-0.2586168807466565i            0.9632104400756586-0.2586168263797373i            0.0013539579647873707+9.414216035606596E-4i
499.99999999999994                                0.0014045134567617621+9.563522242862591E-4i       0.9590259562941558-0.27346347399030435i           0.9590253258723397-0.27346339522999746i           0.001404574704034268+9.5698872659015E-4i
529.6268625886448                                 0.001457465686252924+9.70821791818656E-4i         0.9543465473684702-0.2891143328222277i            0.9543458447785044-0.2891142247774713i            0.0014575486003925477+9.714905636598505E-4i
561.0092271509814                                 0.0015129369257240123+9.840746092371992E-4i       0.9491146784117466-0.305603751596919i             0.9491138961670166-0.30560360853464386i           0.0015130431076164493+9.84776689014543E-4i
594.2511137185094                                 0.0015711138664722525+9.95921808197867E-4i        0.9432656097508758-0.32296561206498575i           0.9432647396590447-0.3229654272595701i            0.0015712452572290672+9.96658250527019E-4i
629.4627058970837                                 0.0016322033061224157+0.0010061262415413813i      0.936727266966833-0.3412329076101349i             0.9367263000829845-0.3412326731672214i            0.0016323622078085766+0.0010068979737796245i
666.7607160816619                                 0.0016964265199351204+0.0010143923620971112i      0.9294194918817748-0.36043715964324846i           0.9294184184681586-0.36043686628910077i           0.0016966155579084437+0.0010152000219544404i
706.2687723113777                                 0.0017640113215411928+0.00102035634391773i        0.9212532403993803-0.38060770683725853i           0.9212520498949596-0.3806073436706192i            0.001764233331969416+0.0010212001154813102i
748.1178280472163                                 0.001835181802088392+0.0010235768414047675i       0.9121297298053583-0.4017708448044039i            0.9121284108117388-0.40177039900451506i           0.0018354396370356917+0.0010244563157344902i
792.4465962305569                                 0.001910145804376499+0.0010235267465128202i       0.9019395405590608-0.4239487903254356i            0.9019380808493968-0.4239482468094646i            0.0019104420506297702+0.0010244408393188648i
839.4020090612802                                 0.001989080219942743+0.0010195862425403856i       0.890561680839089-0.4471584403345077i             0.8905600674008466-0.4471577813572186i            0.001989416839537006+0.001020533205796136i
889.1397050194613                                 0.002072114201793457+0.0010110374114378573i       0.8778626263794641-0.47140989151269463i           0.8778608455016587-0.47140909620314775i           0.0020724921118673717+0.001012014975998327i
941.8245447449009                                 0.0021593103427425594+9.970605864588879E-4i       0.8636953536972615-0.4967046816455117i            0.8636933911191019-0.4967037254722042i            0.0021597289683133233+9.980662758093117E-4i
997.6311574844393                                 0.0022506438036404863+9.767326359912106E-4i       0.847898392015569-0.5230337088651454i             0.8478962331555702-0.5230325630235532i            0.002251100650441745+9.777642846450845E-4i
1056.7445199183237                                0.0023459792631972546+9.490273729049903E-4i       0.8302949283787581-0.5503747797320221i            0.8302925586672908-0.550373410449966i             0.002346469573640035+9.500838728951234E-4i
1119.36056928417                                  0.0024450454408608863+9.128183748480266E-4i       0.8106920121219299-0.5786897319853048i            0.8106894174683409-0.5786880997419778i            0.002445562012197394+9.139006615715093E-4i
1185.6868528308275                                0.002547406811553148+8.668846524473161E-4i        0.7888799194936615-0.6079210730885314i            0.7888770869230525-0.6079191317474416i            0.0025479400665721183+8.679969191563692E-4i
1255.943215754791                                 0.0026524320199494376+8.099198588755224E-4i       0.7646317574512832-0.6379880718780971i            0.7646286759553529-0.6379857677380074i            0.002652970431821581+8.110709633169932E-4i
1330.362529899404                                 0.0027592584491521518+7.405460937132642E-4i       0.7377034081204246-0.6687822383951941i            0.73770006977386-0.6687795091707499i              0.0027597894216978944+7.417510898470792E-4i
1409.1914656322274                                0.0028667524299353406+6.573338200700593E-4i       0.7078339428576861-0.7001621273142058i            0.707830344262966-0.7001589010680617i             0.00286726373414753+6.58615509949503E-4i
1492.69130945898                                  0.0029734647621824078+5.588299928003129E-4i       0.6747466680550644-0.731947404567241i             0.6747428121879754-0.7319435986267017i            0.0029739466132627894+5.602203574713334E-4i
1581.1388300841895                                0.0030775816010206133+4.435971583681516E-4i       0.638151004522339-0.763912126579499i              0.6381469030604603-0.7639076464936378i            0.0030780294340910204+4.451384821606113E-4i
1674.8271957891395                                0.0031768714032653963+3.1026700677630063E-4i      0.5977454491427145-0.7957771992997832i            0.5977411253712116-0.795771937913414i             0.003177289369003485+3.1201247252072954E-4i
1774.0669461678763                                0.0032686296087902685+1.576125804949552E-4i       0.5532219219703025-0.8272020129853151i            0.5532174143653574-0.8271958497420686i            0.0032690347528339507+1.59626074443085E-4i
1879.1870214422213                                0.0033496241076159607-1.5356003200491667E-5i      0.5042718640479605-0.8577752924188873i            0.5042672306461387-0.8577680930443881i            0.003350051127246722-1.3001162396818901E-5i
1990.5358527674864                                0.0034160464048222524-2.0926697686780415E-4i      0.4505945203193442-0.8870052658927065i            0.4505898439761863-0.8869968826665302i            0.003416552781780574-2.0649068916659847E-4i
2108.482517142911                                 0.003463475814867102-4.242279967001906E-4i        0.39190791629680405-0.9143093461240601i           0.3919033109292251-0.9142996190116128i            0.003464147012262901-4.2094770126188306E-4i
2233.417960754817                                 0.003486867088355965-6.596277248781737E-4i        0.32796311317118754-0.9390036398702193i           0.32795873104965695-0.9389923988702539i           0.0034878213670426796-6.557646363488392E-4i
2365.756294807401                                 0.0034805756618917017-9.138939598060731E-4i       0.2585623978354143-0.9602927694250494i            0.2585584379397658-0.9602798385856885i            0.003481967930708-9.093813678911411E-4i
2505.936168136362                                 0.0034384392639402487-0.0011842067618051014i      0.18358212233106794-0.9772607087377598i           0.1835788397015021-0.9772459124058809i            0.0034404632473885506-0.0011790003745269229i
2654.422221154942                                 0.0033539398384188524-0.0014661692584759852i      0.10300093705060293-0.9888636208694038i           0.10299865293259029-0.9888467928654463i           0.0033568277517508115-0.0014602593216271002i
2811.706625951745                                 0.0032204754074900547-0.00175344566178684i        0.016934142497672968-0.9939260431858563i          0.016933254885165252-0.9939070397255843i          0.0032244943257868845-0.0017468702596226484i
2978.3107176450544                                0.003031776966831441-0.002037386511879451i        -0.0743252144346693-0.9911422118329652i           -0.07432422053180356-0.9911209291410223i          0.0030372212140371063-0.002030245069882622i
3154.7867224009647                                0.0027825096166657418-0.002306676476969809i       -0.17025809301222516-0.9790848531535761i          -0.17025463663696647-0.9790612508034745i          0.002789688840338523-0.002299142110367026i
3341.719587843074                                 0.0024690978026371746-0.0025470614141037723i      -0.27006404804656126-0.9562243937730723i          -0.2700574462764958-0.9561985248089071i           0.002478320981978005-0.00253939050218124i
3539.72892192069                                  0.0020908084916748107-0.002741239758827118i       -0.3725992849689548-0.9209622351222173i           -0.3725887520612832-0.9209342839098816i           0.002102364930228597-0.002733777122772204i
3749.4710466622787                                0.0016511084329579673-0.002869038646990889i       -0.47630978432714266-0.8716824598554587i          -0.4762944391121668-0.8716527882930928i           0.001665247722221902-0.0028622171499803166i
3971.6411736214104                                0.0011592756471168427-0.002908035485151187i       -0.5791625119617171-0.806827007243309i            -0.579141397565307-0.8067962093152325i            0.0011761894305262416-0.0029023699172151954i
4206.975708225973                                 6.321825676342163E-4-0.002834825398599242i        -0.6785796947953221-0.7249998376633109i           -0.6785518158715007-0.724968801195262i            6.519913299483724E-4-0.002830902240289581i
4456.2546906687285                                9.606975509098577E-5-0.0026271627855254474i       -0.771383766807274-0.6251056916562493i            -0.7713481505491812-0.6250756643356637i           1.1881732337048039E-4-0.0026256297749357336i
4720.304381429617                                 -4.1201247915379803E-4-0.0022672014236501093i     -0.8537639555215092-0.5065284234914693i           -0.8537197435678361-0.5065010775368086i           -3.863560808050449E-4-0.0022687633989376885i
4999.999999999999                                 -8.436026232965141E-4-0.00174599173744262i        -0.921279592147096-0.36935211174942717i           -0.9212261707260585-0.36932959784199115i          -8.15133383108612E-4-0.0017514212119978641i
5296.268625886442                                 -0.0011397900669470854-0.001069223688337479i      -0.9689199492874877-0.21462463167022205i          -0.9688571239398694-0.21460960776440993i          -0.0011086669912507925-0.0010793947470109592i
5610.0922715098195                                -0.0012346684816189298-2.638783442592888E-4i      -0.9912453495600112-0.04465737990790709i          -0.9911735676880095-0.04465299436284285i          -0.0012011333123616206-2.7982892256101145E-4i
5942.5111371850935                                -0.001062318331703166+6.150777656480824E-4i       -0.982638661086965+0.13665447086084573i           -0.9825592792262401+0.1366446693026364i           -0.0010267644243685866+5.920595239495712E-4i
