% Model:              A5_flexural_plate_in_duct.mph
% Version:            COMSOL 6.2.0.290
% Date:               Mar 30 2026, 20:11
% Table:              Table 1 - Global Evaluation 1
% freq (Hz)                                       S11 (1)                                           S21 (1)                                           S12 (1)                                           S22 (1)
49.99999999999999                                 0.9965903623448374-0.06508523722646663i           0.00241238473229631+0.03692897792864976i          0.0024123848682959903+0.03692897788374969i        0.9965909199326267-0.06508672172970875i
52.96268625886442                                 0.9962302066431613-0.06891359344262334i           0.0027060827109277132+0.03910925795060146i        0.0027060828774291413+0.03910925788816496i        0.9962306709739169-0.06891524025283775i
56.10092271509817                                 0.9958279684469387-0.07296657806200149i           0.003035572861296985+0.041417310852052636i        0.003035573064036334+0.0414173107649291i          0.9958283153671952-0.07296838369698108i
59.42511137185091                                 0.9953785908929269-0.07725719958533447i           0.003405223321741657+0.04386044743706897i         0.00340522356740898+0.043860447319059775i         0.9953787961209135-0.07725915670465336i
62.94627058970836                                 0.9948764016816806-0.08179918877033628i           0.0038199368679991664+0.046446363091426406i       0.0038199371650170302+0.04644636293264445i        0.9948764415195069-0.08180128613131007i
66.6760716081662                                  0.9943150367266288-0.08660703235909649i           0.004285216735889453+0.04918315130467064i         0.004285217093643267+0.04918315109359327i         0.9943148888042247-0.08660925484836215i
70.6268772311377                                  0.9936873541662788-0.09169600686361301i           0.00480724063756507+0.05207931618615009i          0.004807241066361134+0.05207931590660632i         0.9936869981611082-0.09169833577483122i
74.81178280472167                                 0.9929853375182062-0.09708221197332952i           0.005392943996864491+0.055143783543287056i        0.005392944508669841+0.055143783176592055i        0.9929847558283532-0.09708462539922591i
79.24465962305565                                 0.9921999866395406-0.10278260302277197i           0.0060501135779991435+0.05838591000596498i        0.006050114186685571+0.05838590952918291i         0.9921991649443128-0.10278507645128822i
83.94020090612803                                 0.9913211949846952-0.10881502190745457i           0.006787492822722677+0.06181548956284164i         0.006787493542687912+0.061815488945103456i        0.9913201226754185-0.10881752888119389i
88.91397050194612                                 0.9903376114782202-0.11519822559444132i           0.007614900387416468+0.06544275669740862i         0.007614901235543166+0.06544275590310988i         0.9903362818987032-0.11520073852277007i
94.18245447449                                    0.9892364851100854-0.12195191127555348i           0.008543363570283267+0.06927838518494107i         0.00854336456406908+0.06927838416949471i          0.9892348956053577-0.12195440224452464i
99.76311574844398                                 0.9880034901237413-0.1290967369078096i            0.009585268533507472+0.07333348134911385i         0.00958526969239446+0.07333348005992767i          0.988001641872684-0.12909917850176472i
105.67445199183237                                0.9866225293923828-0.13665433572372684i           0.010754529491574955+0.07761957033150778i         0.010754530834772555+0.07761956869751768i         0.9866204270356037-0.1366567017531007i
111.93605692841699                                0.9850755132683704-0.14464732285705315i           0.012066779314680897+0.08214857357252156i         0.012066780861706651+0.08214857151216176i         0.9850731643540529-0.14464958897108646i
118.56868528308274                                0.9833421107952837-0.15309929195945726i           0.013539584342621527+0.08693277535836026i         0.013539586113098369+0.08693277277245133i         0.9833395250861061-0.1531014360721851i
125.59432157547896                                0.9813994697965219-0.1620347990499601i            0.015192686571404962+0.0919847757139838i          0.015192688583173158+0.09198477248371185i         0.9813966584872973-0.1620368015470481i
133.0362529899404                                 0.9792219018221106-0.1714793303098902i            0.01704827680768101+0.09731742634296556i          0.017048279076395795+0.09731742232809898i         0.9792188767341589-0.17148117403506127i
140.91914656322274                                0.9767805274197804-0.1814592497151559i            0.01913130287703468+0.10294374554516088i          0.019131305411095974+0.10294374056824185i         0.9767773002442427-0.18146091968843098i
149.26913094589798                                0.9740428765607312-0.1920017214270531i            0.021469817521119726+0.10887680705944225i         0.02146982032328943+0.10887680091499724i          0.9740394582032336-0.1920032043818749i
158.11388300841895                                0.9709724383414154-0.20313460063673133i           0.02409537124052569+0.11512959660830095i          0.024095374301702423+0.11512958904796726i         0.9709688384457079-0.2031358843368728i
167.48271957891376                                0.9675281533336704-0.21488628499567042i           0.027043456028495366+0.12171482838488597i         0.027043459324474835+0.12171481911422842i         0.9675243800166381-0.21488735744280382i
177.40669461678763                                0.9636638410719965-0.227285516831274i             0.030354006696225937+0.12864471183259354i         0.030354010184148572+0.12864470050530852i         0.9636599009123186-0.22728636539935218i
187.91870214422212                                0.9593275542591597-0.24036112391194045i           0.03407196732486827+0.13593065668519327i          0.03407197093158128+0.13593064288474804i          0.959323452563777-0.24036173444022688i
199.05358527674863                                0.9544608503091269-0.2541416832949959i            0.03824793121905288+0.1435829011700295i           0.038247934838048746+0.14358288441134i            0.9544565916353053-0.25414203930450596i
210.8482517142911                                 0.948997969839661-0.2686550890029691i             0.04293886362279612+0.15161004442564624i          0.04293886710210522+0.15161002413824196i          0.9489935587758108-0.2686551710174287i
223.34179607548148                                0.9428649108044739-0.28392799909274036i           0.04820891726654649+0.16001845928999478i          0.04820892039030589+0.16001843479688432i          0.9428603529741394-0.28392778415089925i
236.5756294807401                                 0.9359783862133293-0.29998513126284015i           0.05413035140729744+0.16881155520144261i          0.05413035388384994+0.1688115257132848i           0.9359736894374899-0.29998459272041145i
250.5936168136362                                 0.9282446529127885-0.31684836796511395i           0.0607845653775463+0.1779888530370669i            0.060784566815352756+0.17798881763090582i         0.9282398284867127-0.3168474755750708i
265.4422221154942                                 0.9195581991511946-0.33453562130237935i           0.06826325722793329+0.18754482314158308i          0.06826325710842568+0.1875447807407016i           0.9195532631605072-0.33453434163568385i
281.1706625951745                                 0.9098002799268712-0.35305939441116724i           0.07666971663682537+0.19746742449491891i          0.07666971428021895+0.1974673738477298i           0.9097952545201575-0.3530576916316964i
297.8310717645051                                 0.8988372921732591-0.3724249585090038i            0.08612025801477603+0.20773626569814935i          0.08612025253841026+0.20773620535728016i          0.8988322067157668-0.37242279548802026i
315.47867224009644                                0.8865189878236533-0.39262804214132085i           0.0967457935674166+0.21832028613106058i           0.0967457838238786+0.21832021441605423i           0.8865138798592131-0.39262538189300006i
334.1719587843074                                 0.8726765333203974-0.4136519001512828i            0.1086935353656789+0.22917482699865285i           0.10869351988692706+0.22917474198684235i          0.872671449231996-0.41364870758773964i
353.97289219206897                                0.8571204417572333-0.4354635927406451i            0.12212879764914995+0.24023792528888444i          0.12212877455039932+0.24023782477577885i          0.8571154371051021-0.43545983663095555i
374.94710466622786                                0.8396384327366434-0.4580092574818381i            0.13723684150141485+0.2514256166858806i           0.1372368083773552+0.2514254981637582i            0.8396335721756999-0.45800491260560455i
397.16411736214064                                0.819993320796227-0.4812080976649845i             0.15422465807533486+0.26262597464083354i          0.1542246118554772+0.26262583527120387i           0.8199886775565077-0.4812031470431009i
420.6975708225973                                 0.7979211054634144-0.5049447363903281i            0.17332251417987055+0.2736915396243599i           0.173322450983088+0.27369137624822454i            0.7979167603256524-0.5049391735522921i
445.6254690668729                                 0.7731295478347441-0.5290594971739662i            0.1947849720815247+0.28442970479429863i           0.19478488697491975+0.28442951391213606i          0.7731255876766409-0.5290533283030536i
472.0304381429617                                 0.7452976909280674-0.5533360698190177i            0.2188909229583957+0.29459052340378833i           0.21889080970394703+0.29459030121882795i          0.7452942067615875-0.5533293157755449i
499.99999999999994                                0.7140770428504274-0.5774859138480971i            0.2459419116877995+0.30385129801650684i           0.24594176243091329+0.30385104051678796i          0.7140741273985908-0.5774786119807408i
529.6268625886448                                 0.6790955365233761-0.6011286604150925i            0.2762576360869206+0.3117972216407031i            0.2762574409352697+0.3117969247283505i            0.6790932813974361-0.6011208660817705i
561.0092271509814                                 0.6399659654119715-0.6237677418674701i            0.31016691833536086+0.3178973108129143i           0.3101666648847025+0.31789697054628474i           0.6399644578221247-0.6237595296974253i
594.2511137185094                                 0.5963014463924313-0.6447605934587792i            0.34799159511411326+0.32147498781403155i          0.34799126782517453+0.32147460077927015i          0.5963007654328728-0.6447520583043856i
629.4627058970837                                 0.5477416647294573-0.6632831970605942i            0.39001956989564307+0.32167309667458405i          0.39001914947227645+0.32167266060186367i          0.5477418769832973-0.663274454674462i
666.7607160816619                                 0.49399527674699395-0.6782897645636987i           0.43646165127128334+0.3174141678856243i           0.43646111387496955+0.31741368253741337i          0.49399643117940184-0.6782809518708653i
706.2687723113777                                 0.4349058569813749-0.6884704800592049i            0.48738479140515795+0.3073588707941793i           0.4873841078265966+0.3073583392950215i            0.4349079787349132-0.6884617548698327i
748.1178280472163                                 0.37055088475965464-0.6922142049727648i           0.5426122324656525+0.28986958081125686i           0.5426113675394929+0.2898690115578648i            0.3705539672536824-0.6922057446772564i
792.4465962305569                                 0.3013845666753364-0.6875899652825266i            0.6015797698310497+0.2629929069090983i            0.6015786819149055+0.2629923162325181i            0.3013885619622768-0.6875819636703044i
839.4020090612802                                 0.2284336724959506-0.6723720235389902i            0.663138963018209+0.2244860122890982i             0.6631376043311126+0.22448542801178517i           0.22843847921713686-0.6723646842571396i
889.1397050194613                                 0.1535468499453061-0.6441487205114456i            0.725306841495894+0.17192694748892584i            0.725305159553057+0.17192641346028117i            0.15355229963339095-0.6441422449871586i
941.8245447449009                                 0.07967526157781053-0.6005723193561402i           0.7849842800317212+0.10296626806125207i           0.7849822211803837+0.10296584942767875i           0.07968110489802908-0.6005668862613752i
997.6311574844393                                 0.01111770009750296-0.53981569941246i             0.8377099118980241+0.015785828650308517i          0.8377074278378944+0.01578561715663117i           0.011123597266257083-0.5398114327947984i
1056.7445199183237                                -0.04640598530796454-0.4612791378716353i          0.877585781028216-0.09019195739996978i            0.8775828392192401-0.09019183968957996i           -0.04640046262422071-0.46127606263606863i
1119.36056928417                                  -0.08606344617953507-0.36650155499252024i         0.8975850735444012-0.2133899595951949i            0.8975816714495628-0.21338936047293203i           -0.08605879106799606-0.3664995433161499i
1185.6868528308275                                -0.10082455258846838-0.2600507898938405i          0.8904661683504187-0.3491826419344635i            0.8904623500107244-0.34918138656516723i           -0.10082126721414147-0.2600495097701637i
1255.943215754791                                 -0.0850520651668585-0.1499421016758779i           0.8503628853454901-0.4894735819932523i            0.8503587559293102-0.4894714896320003i            -0.08505056999879394-0.14994098892308877i
1330.362529899404                                 -0.03645125644159939-0.047041950620047186i        0.7747340381312176-0.623287076220201i             0.7747297703575844-0.6232839858001681i            -0.03645177725804927-0.04704022869170002i
1409.1914656322274                                0.04240482472148752+0.036795181487964325i         0.6658891248654747-0.7386260138722797i            0.6658849517756862-0.7386218127358902i            0.04240236045671989+0.03679841901862758i
1492.69130945898                                  0.14388110778317473+0.09140720005660626i          0.5311836613325068-0.8251462400911478i            0.53117985465701-0.8251408869749137i              0.1438771254939712+0.09141285503090836i
1581.1388300841895                                0.25676827223167803+0.11071723007874555i          0.3815333530227754-0.8765425633010532i            0.38153019279538763-0.8765360977276109i           0.25676353070795904+0.11072605074746866i
1674.8271957891395                                0.3688494084121551+0.09376801320892464i           0.22885046987526378-0.8915755145139926i           0.22884821514656425-0.8915680503901253i           0.36884491212209175+0.09378047613126504i
1774.0669461678763                                0.4693753669628161+0.04411921491446725i           0.08357292100983447-0.8734601865574925i           0.08357178988549321-0.8734518947619158i           0.46937224291929946+0.04413546658081052i
1879.1870214422213                                0.5505382048341219-0.031796752381766935i          -0.04680300517395733-0.8282127823687584i          -0.04680284373252966-0.8282038701285851i          0.5505375827834449-0.031776893547151755i
1990.5358527674864                                0.6077581424475208-0.12646536957940516i           -0.15800119598839318-0.762849987361521i           -0.15799962051386054-0.7628406810541843i          0.6077610632273395-0.12644236997559083i
2108.482517142911                                 0.6391582427132811-0.23261407578123053i           -0.24842924305281103-0.6840543998786716i          -0.24842617325800548-0.6840449339650495i          0.6391656025620598-0.23258862619446302i
2233.417960754817                                 0.6447336687021674-0.3439033145485382i            -0.3183331942058981-0.5974727900984157i           -0.31832858369381617-0.5974634023963492i          0.6447461939591257-0.3438762699829324i
2365.756294807401                                 0.6255729447638363-0.45510941834270435i           -0.3690002759852349-0.5075228294821992i           -0.36899410695707996-0.5075137608163569i          0.6255911880348418-0.4550817477538041i
2505.936168136362                                 0.583285387452332-0.5620080087782489i             -0.4021630168282678-0.4175003368135361i           -0.40215529781115683-0.41749183331974526i         0.5833097367575921-0.5619807577523219i
2654.422221154942                                 0.5196506082489823-0.6611304437480403i            -0.4196199049964613-0.3298155252274089i           -0.41961067195591717-0.329807841453768i           0.519681303515759-0.6611047109485275i
2811.706625951745                                 0.4364453753312424-0.7494977416547519i            -0.4230271185413711-0.24625520719021907i          -0.4230164392459942-0.2462486088864417i           0.4364825286419865-0.7494746694441491i
2978.3107176450544                                0.335391446705592-0.8243795036138881i             -0.41380428966251465-0.16822528600868664i         -0.413792271153703-0.16822005160450024i           0.33543506362195236-0.8243602848976744i
3154.7867224009647                                0.21817685811500093-0.8830884270741057i           -0.3931063624503873-0.09696534862121907i          -0.3930931616021391-0.09696176860903877i          0.2182268567411992-0.8830743326926602i
3341.719587843074                                 0.08651601017186973-0.9227973928278222i           -0.3618268733518302-0.03375143815848525i          -0.36181271081096783-0.03374981150527493i         0.08657223223806333-0.9227898271887726i
3539.72892192069                                  -0.05777597778064111-0.9403431418800039i          -0.3206087750382869+0.019873222997326592i         -0.3205939535156316+0.019872596560929715i         -0.05771377433859325-0.9403437398819178i
3749.4710466622787                                -0.21271205163391313-0.9319368549257951i          -0.2698470727844026+0.06175532984191938i          -0.2698320019788146+0.061752163732586594i         -0.2126442391748825-0.9319476442167886i
3971.6411736214104                                -0.37606864656104155-0.892584373771756i           -0.20968292535355787+0.08847391227530413i         -0.20966815935368324+0.08846795761665749i         -0.375995858128107-0.8926080529412281i
4206.975708225973                                 -0.5452515710849466-0.8146494735820147i           -0.14007059275009595+0.09379576302814842i         -0.1400568953177399+0.09378685654800649i          -0.545175035052664-0.8146899304857693i
4456.2546906687285                                -0.7164691405052133-0.6836468038087177i           -0.06154830294193842+0.06432476418464286i         -0.06153678544085044+0.06431294646918667i         -0.7163916423970775-0.6837102193891551i
4720.304381429617                                 -0.8780516425919694-0.46357166774502195i          0.01811530018576749-0.035352619340020514i         0.018122835152543385-0.03536667911878531i         -0.8779811569857755-0.4636691775673778i
4999.999999999999                                 -0.9395743630037251-0.04359132610621532i          0.01304634556248324-0.3162058334000382i           0.013046853836626075-0.31621841435878295i         -0.9395444282101688-0.04374231015301659i
5296.268625886442                                 -0.1843622451466265+0.2885636221335763i           -0.7882865566174917-0.4917099585855677i           -0.788282391704006-0.49170674934221215i           -0.18448637141808824+0.28846011480787037i
5610.0922715098195                                -0.3490108711740462-0.4897347328215066i           -0.6439449327218008+0.45834997607621913i          -0.6439269277100771+0.4583379165537303i           -0.3490249180186269-0.48971850700535363i
5942.5111371850935                                -0.7410130741154991-0.35374345981730587i          -0.2405742575757176+0.5052448902721055i           -0.2405635229521998+0.5052235489106321i           -0.7409773676260519-0.35377480333075756i
