% Model:              A1_caseF_silicone_slab_filter_film_in_duct_3mic_2loads.mph
% Version:            COMSOL 6.2.0.290
% Date:               Apr 2 2026, 14:53
% Table:              Table 1 - Point Evaluation 1
% l_outlet (m)                                    freq (Hz)                                         Total acoustic pressure (Pa), Point: 2            Total acoustic pressure (Pa), Point: 3            Total acoustic pressure (Pa), Point: 8
0.011                                             49.99999999999999                                 1.9980243315348591-0.0027150294885581413i         1.9992469348138031-0.0027196846587736606i         0.12959116511333355-0.00422250801473957i
0.011                                             52.96268625886442                                 1.9977890174479613-0.002871846831429075i          1.9991606974317886-0.0028772692997162375i         0.12962802741037383-0.004657203660108701i
0.011                                             56.10092271509817                                 1.9975252262193817-0.003037650818366908i          1.9990641556240218-0.0030439741365044038i         0.1296585271222813-0.00511309583761992i
0.011                                             59.42511137185091                                 1.9972294884749417-0.003212916175323024i          1.9989560534687434-0.003220298079364719i          0.12968220901315233-0.005591453601472691i
0.011                                             62.94627058970836                                 1.996897916552443-0.003398134966471695i           1.9988349858467227-0.003406761794212393i          0.1296985494875101-0.006093614539505399i
0.011                                             66.6760716081662                                  1.9965261512155452-0.0035938159099963007i         1.9986993777437736-0.0036039078205156146i         0.1297069487162948-0.00662098508680877i
0.011                                             70.6268772311377                                  1.9961093066631768-0.0038004835131767167i         1.9985474657659112-0.003812300653851843i          0.1297067223139027-0.007175040587177528i
0.011                                             74.81178280472167                                 1.9956419056281733-0.004018676658519799i          1.998377274119809-0.004032526450718193i           0.1296970924117178-0.007757325095882356i
0.011                                             79.24465962305565                                 1.9951178098774878-0.004248946964398509i          1.998186590893442-0.0042651927101347775i          0.12967717789418945-0.008369450866848524i
0.011                                             83.94020090612803                                 1.9945301387730818-0.004491856088463016i          1.9979729378543796-0.004510927135038683i          0.1296459836474468-0.00901309736963574i
0.011                                             88.91397050194612                                 1.9938711813571484-0.004747972591213157i          1.9977335398799387-0.0047703763333151366i         0.12960238885127165-0.009690009749202184i
0.011                                             94.18245447449                                    1.9931322962728224-0.0050178676475143855i         1.9974652890237399-0.00504420369354252i           0.12954513394958928-0.010401996470883312i
0.011                                             99.76311574844398                                 1.992303800159194-0.005302109759287081i           1.9971647046492955-0.005333086644632496i          0.12947280628382055-0.011150925945068916i
0.011                                             105.67445199183237                                1.9913748429703277-0.005601257913522238i          1.9968278889328304-0.005637712806434395i          0.12938382426888828-0.01193872177940364i
0.011                                             111.93605692841699                                1.9903332696735236-0.005915853363167469i          1.9964504781588215-0.005958775282345027i          0.12927642011095236-0.012767356363087944i
0.011                                             118.56868528308274                                1.9891654648919093-0.006246409359956052i          1.9960275874151296-0.0062969665045365004i         0.12914862094276883-0.01363884234087791i
0.011                                             125.59432157547896                                1.9878561801204138-0.00659339868973453i           1.995553749478124-0.006652970575443338i           0.12899822849402526-0.014555221543489852i
0.011                                             133.0362529899404                                 1.9863883416469308-0.006957238767116814i          1.995022847293116-0.007027453966705663i           0.12882279740301603-0.01551855090562353i
0.011                                             140.91914656322274                                1.9847428365047635-0.0073382736592397385i         1.9944280387587396-0.007421054059618653i          0.12861961228920624-0.01653088481834311i
0.011                                             149.26913094589798                                1.982898274924146-0.007736752882555298i           1.9937616738087556-0.007834365498348395i          0.12838566397335405-0.017594253401559387i
0.011                                             158.11388300841895                                1.9808307263019218-0.008152806324651688i          1.9930152024478152-0.008267923843821638i          0.1281176250702459-0.018710636076560337i
0.011                                             167.48271957891376                                1.9785134265390103-0.008586414861765248i          1.992179073381791-0.008722186244484823i           0.12781182556558407-0.01988192986395539i
0.011                                             177.40669461678763                                1.9759164539508616-0.00903737621913925i           1.991242622364422-0.00919750882245889i            0.1274642288763065-0.021109911782661472i
0.011                                             187.91870214422212                                1.9730063707510703-0.009505265466191534i          1.9901939493198026-0.009694120318900733i          0.1270704092581305-0.022396194733875073i
0.011                                             199.05358527674863                                1.9697458269480308-0.009989389626309466i          1.989019783266492-0.01021209162477231i            0.12662553139477098-0.023742176260656493i
0.011                                             210.8482517142911                                 1.9660931236315378-0.010488735920518993i          1.987705334333336-0.010751300847692146i           0.12612433338273707-0.025148979620917583i
0.011                                             223.34179607548148                                1.9620017320912975-0.011001913208230045i          1.9862341317277363-0.011311393581241795i          0.12556111444412438-0.02661738666793055i
0.011                                             236.5756294807401                                 1.9574197653926508-0.011527086266095696i          1.9845878467829114-0.011891738075276338i          0.12492972903409316-0.028147762162620386i
0.011                                             250.5936168136362                                 1.952289398777496-0.012061902819838358i           1.98274610001148-0.012491375213799298i            0.1242235892591955-0.029739969318609893i
0.011                                             265.4422221154942                                 1.9465462353731235-0.01260341335652396i           1.9806862512066616-0.013108963223503993i          0.1234356779278645-0.031393276663060445i
0.011                                             281.1706625951745                                 1.940118613472658-0.013147984255341135i           1.9783831713769144-0.01374271742162192i           0.12255857475641631-0.03310625666395691i
0.011                                             297.8310717645051                                 1.9329268518158635-0.013691205118857927i          1.9758089953291798-0.014390345487972267i          0.12158449868998782-0.034876677105393064i
0.011                                             315.47867224009644                                1.9248824294615097-0.01422779186252504i           1.9729328536606072-0.015048979213416719i          0.12050536947126234-0.036701386850662036i
0.011                                             334.1719587843074                                 1.915887096694247-0.014751487805212548i           1.9697205824196327-0.015715104103933356i          0.11931289178140922-0.03857619847430702i
0.011                                             353.97289219206897                                1.9058319137890538-0.01525496591493821i           1.9661344085610493-0.016384488826079735i          0.11799866521950982-0.04049577123834781i
0.011                                             374.94710466622786                                1.8945962146060054-0.015729736313955602i          1.9621326087391022-0.017052117077855953i          0.11655432318714874-0.04245349905246861i
0.011                                             397.16411736214064                                1.8820464923583522-0.016166064344479366i          1.9576691383585152-0.017712125283193454i          0.11497170313020914-0.044441409323583675i
0.011                                             420.6975708225973                                 1.8680352051882065-0.016552905460914126i          1.9526932267080144-0.01835775006331962i           0.11324304962367343-0.04645007988999041i
0.011                                             445.6254690668729                                 1.852399500054621-0.01687786446880516i            1.9471489330395593-0.01898129030176709i           0.11136125036228686-0.04846858249252798i
0.011                                             472.0304381429617                                 1.8349598543368721-0.017127187420866826i          1.9409746568640538-0.019574089055046897i          0.10932010313276998-0.05048446222994572i
0.011                                             499.99999999999994                                1.8155186361940392-0.017285795122786128i          1.9341025940505603-0.020126540945543073i          0.10711460938082405-0.052483763068286705i
0.011                                             529.6268625886448                                 1.7938585872308235-0.017337367246330972i          1.9264581283863331-0.02062813060137429i           0.10474128700782456-0.05445110943600548i
0.011                                             561.0092271509814                                 1.7697412349618316-0.01726448550618017i           1.9179591463046657-0.021067507256432576i          0.10219849179321987-0.056369853093407724i
0.011                                             594.2511137185094                                 1.742905248333665-0.017048842874326474i           1.9085152604347555-0.021432599476918286i          0.09948673344235484-0.0582222925103788i
0.011                                             629.4627058970837                                 1.7130647583600362-0.016671523430470663i          1.898026926148846-0.021710772228578715i           0.09660896919848036-0.05998996888287058i
0.011                                             666.7607160816619                                 1.6799076782640687-0.016113354090753932i          1.886384434204744-0.021889026055039354i           0.09357085553064869-0.06165403855011168i
0.011                                             706.2687723113777                                 1.6430940749099314-0.015355325214488185i          1.8734667626204542-0.021954235055326635i          0.09038093721113201-0.06319571612785982i
0.011                                             748.1178280472163                                 1.602254666837447-0.014379072290004418i           1.8591402722694588-0.021893416875092272i          0.08705075353683775-0.0645967764473645i
0.011                                             792.4465962305569                                 1.5569895552758346-0.013167405962227943i          1.8432572337290933-0.021694024335591148i          0.08359484395206944-0.06584009692820114i
0.011                                             839.4020090612802                                 1.506867334415967-0.011704873175774148i           1.8256541778914297-0.021344245025470936i          0.08003064008647749-0.06691021603080768i
0.011                                             889.1397050194613                                 1.4514247772915194-0.009978328811186732i          1.8061500699616444-0.02083329260926554i           0.07637823817164796-0.06779387874125727i
0.011                                             941.8245447449009                                 1.3901673548556996-0.007977495615289387i          1.784544315634215-0.02015167232141697i            0.07266005455436747-0.06848053744287456i
0.011                                             997.6311574844393                                 1.3225709192485164-0.005695490828535127i          1.7606146194034946-0.019291403329456294i          0.0689003769155488-0.06896277666739185i
0.011                                             1056.7445199183237                                1.2480849683620172-0.0031293010520630584i         1.7341147278161133-0.01824618274580391i           0.06512483390828258-0.06923663342847437i
0.011                                             1119.36056928417                                  1.166138008061711-2.801922789564766E-4i           1.7047721048341176-0.017011479883181732i          0.06135981530908005-0.06930179105428451i
0.011                                             1185.6868528308275                                1.0761456405716079+0.0028459508836498645i         1.6722856020595074-0.015584554769620697i          0.05763188264067859-0.06916163313188958i
0.011                                             1255.943215754791                                 0.9775221317956364+0.0062383551210939275i         1.6363232033351192-0.01396440144679056i           0.0539672162582236-0.06882315443592212i
0.011                                             1330.362529899404                                 0.8696963445330261+0.009881149090446427i          1.5965199411064603-0.012151623724969888i          0.050391149551133683-0.06829673636057998i
0.011                                             1409.1914656322274                                0.7521330642829566+0.01375320297851055i           1.552476100707647-0.0101482584117123i             0.046927845852215384-0.06759580414956637i
0.011                                             1492.69130945898                                  0.624360881539208+0.017828007667818394i           1.5037558475198207-0.007957568426777641i          0.043600182397757724-0.06673639100735636i
0.011                                             1581.1388300841895                                0.48600791474950106+0.022073597769283318i         1.4498864277283734-0.005583836220579827i          0.04042992503625007-0.06573663915302141i
0.011                                             1674.8271957891395                                0.3368467370451205+0.026452556018045408i          1.3903580983455168-0.0030321981570631653i         0.03743832064631837-0.06461626960050283i
0.011                                             1774.0669461678763                                0.17684986558055776+0.030922207697167966i         1.324624916465987-3.085772157720823E-4i           0.03464732922194795-0.06339605081494151i
0.011                                             1879.1870214422213                                0.006257011772124363+0.03543526490602611i         1.2521064123875145+0.002580195932088894i          0.032081927713967624-0.06209729145261614i
0.011                                             1990.5358527674864                                -0.17434516480654177+0.03994151706108533i         1.1721898589648374+0.005625910822643199i          0.029774401125790568-0.06074137393528032i
0.011                                             2108.482517142911                                 -0.3639311065885536+0.04439197726563696i          1.0842319749251295+0.008817814432481728i          0.02777272899221018-0.059349332376608326i
0.011                                             2233.417960754817                                 -0.5609349491692769+0.04874908724504963i          0.987556356041184+0.01213993925915212i            0.026158429067271213-0.05794145666833926i
0.011                                             2365.756294807401                                 -0.7631487586779853+0.05301340908707701i          0.8814347271042343+0.015564621860973895i          0.025089401562069385-0.0565368684177335i
0.011                                             2505.936168136362                                 -0.9676506156167799+0.05730303992448855i          0.7650086760490845+0.01903438880137355i           0.024921865721601284-0.055152995210782436i
0.011                                             2654.422221154942                                 -1.1708913440996112+0.06215215029915359i          0.6369495662134942+0.02239726290436289i           0.026659564652545223-0.05380560551793319i
0.011                                             2811.706625951745                                 -1.3698596120403788+0.07028337478760921i          0.4933297298087464+0.02504616980346161i           0.03459188779021914-0.05252971842286299i
0.011                                             2978.3107176450544                                -1.5945340107154806+0.136142479776562i            0.2688305374743126+0.019073601209121074i          0.1274013571762585-0.05542302128166199i
0.011                                             3154.7867224009647                                -1.6806942585835143+0.03316681828998588i          0.23578809644853194+0.04276409840803218i          -0.025502374964158327-0.05161578172132009i
0.011                                             3341.719587843074                                 -1.82037040405579+0.04411246914713207i            0.05164111362038971+0.043749213748740315i         -0.007310567047675753-0.04990231912027409i
0.011                                             3539.72892192069                                  -1.9126958387208983+0.04427822912496783i          -0.13111375564354563+0.04735275153129622i         -0.0032687025374389072-0.048954159830833704i
0.011                                             3749.4710466622787                                -1.9529076676475279+0.04075909790711091i          -0.3207022115243197+0.05148370893847723i          -0.002063896279179973-0.04826716111369831i
0.011                                             3971.6411736214104                                -1.9309136879860906+0.034552810450188834i         -0.5170872875620626+0.05577473212847765i          -0.0018836796796353377-0.047808256173798726i
0.011                                             4206.975708225973                                 -1.836453276277531+0.0258788661875361i            -0.718531439328021+0.06005679516950682i           -0.0021852393138711928-0.04759646207923i
0.011                                             4456.2546906687285                                -1.6607261940043214+0.014823248541043898i         -0.9222270106265628+0.064191548708704i            -0.002759552289327252-0.047670889645292355i
0.011                                             4720.304381429617                                 -1.3980269421563525+0.0015253141001234612i        -1.124333772399649+0.06803014304873908i           -0.003518580581440944-0.04808885332898555i
0.011                                             4999.999999999999                                 -1.0476842554411263-0.013719989912325597i         -1.3199018615180613+0.07139807120665354i          -0.004428014047804742-0.048932185899562705i
0.011                                             5296.268625886442                                 -0.61628280039054-0.03038196554122569i            -1.50277817786542+0.07409082603551687i            -0.005479768744469164-0.05032146687436517i
0.011                                             5610.0922715098195                                -0.1199832309578442-0.04763369092959395i          -1.6655360326276383+0.07588559698098059i          -0.006675591315400035-0.052446795669903006i
0.011                                             5942.5111371850935                                0.41844681909761283-0.0639359904030609i           -1.8026518586082596+0.08049354361370475i          -0.015669095032947666-0.05534269364267213i
0.036                                             49.99999999999999                                 1.9980144793856447-0.0027983505236026714i         1.9992386096281738-0.0028031720871280756i         0.056503315326008295-0.0024839083468960405i
0.036                                             52.96268625886442                                 1.9977777821261826-0.0029600517777989225i         1.9991511746087272-0.0029656755239394843i         0.05650147350942624-0.0026659984493029956i
0.036                                             56.10092271509817                                 1.9975124343337982-0.003131007097831865i          1.9990532839641102-0.0031375734639890952i         0.05649736887840623-0.002857893340057576i
0.036                                             59.42511137185091                                 1.9972149456961577-0.0033117025649806735i         1.998943663404309-0.0033193774886807075i          0.05649078767278587-0.0030601625345766065i
0.036                                             62.94627058970836                                 1.9968814054202706-0.003502641481739241i          1.9988208875267632-0.0035116210639390775i         0.05648148798286089-0.0032734048090848887i
0.036                                             66.6760716081662                                  1.9965074285111362-0.003704343358552771i          1.9986833587037192-0.003714859373599764i          0.056469196485331184-0.0034982486497005484i
0.036                                             70.6268772311377                                  1.9960881001667818-0.003917343016809472i          1.9985292880112382-0.003929669422573387i          0.056453604980720655-0.003735352604662525i
0.036                                             74.81178280472167                                 1.9956179116060162-0.004142188900346721i          1.9983566719622752-0.004156649528659267i          0.05643436658374774-0.00398540547334096i
0.036                                             79.24465962305565                                 1.9950906886029842-0.004379441013789505i          1.9981632668430687-0.004396418653840055i          0.056411091538137795-0.0042491263146462325i
0.036                                             83.94020090612803                                 1.9944995116964503-0.004629668017023884i          1.9979465601832866-0.004649615141203324i          0.0563833426512572-0.0045272642127282105i
0.036                                             88.91397050194612                                 1.993836626389997-0.004893443576027949i           1.9977037383183065-0.004916895001349483i          0.05635063023101746-0.0048205977348513935i
0.036                                             94.18245447449                                    1.9930933431369011-0.0051713415847708475i         1.9974316505339391-0.005198929412699995i          0.05631240656583898-0.005129933999853434i
0.036                                             99.76311574844398                                 1.9922599257256148-0.0054639302778055066i         1.9971267691952952-0.005496401513307866i          0.05626805986870686-0.005456107261569944i
0.036                                             105.67445199183237                                1.991325466170468-0.005771764704357749i           1.9967851448180927-0.005810002020301585i          0.05621690765715102-0.005799976880183322i
0.036                                             111.93605692841699                                1.9902777456681116-0.0060953776087215045i         1.996402356602116-0.006140423797337518i           0.05615818959325507-0.006162424560196615i
0.036                                             118.56868528308274                                1.989103079404153-0.006435268250386825i           1.99597345725384-0.006488354988049466i            0.0560910597462295-0.006544350693039405i
0.036                                             125.59432157547896                                1.9877861432060944-0.00679188877701124i           1.9954929112462285-0.006854470423425165i          0.0560145783150848-0.006946669632329507i
0.036                                             133.0362529899404                                 1.9863097814562596-0.00716562797941698i           1.9949545271954088-0.007239421238847525i          0.055927702882004576-0.007370303717640783i
0.036                                             140.91914656322274                                1.984654793013018-0.007556791887332803i           1.9943513824813695-0.007643822275771672i          0.05582927924340368-0.007816175835476719i
0.036                                             149.26913094589798                                1.9827996935978867-0.00796558076584464i           1.9936757400750262-0.008068236954854027i          0.05571803194943003-0.008285200290985452i
0.036                                             158.11388300841895                                1.980720452229909-0.0083920621608401i             1.9929189567912882-0.0085131594052813i            0.055592554711164525-0.008778271758463367i
0.036                                             167.48271957891376                                1.9783901990781425-0.00883613933274555i           1.9920713821024802-0.008978993331545036i          0.055451300880441735-0.009296252054891535i
0.036                                             177.40669461678763                                1.9757789022132521-0.009297514722233856i          1.991122246899992-0.00946602740785319i            0.05529257427398182-0.009839954485028404i
0.036                                             187.91870214422212                                1.9728530104801636-0.009775647823060642i          1.9900595414622113-0.009974406718077129i          0.055114520689706924-0.010410125500261897i
0.036                                             199.05358527674863                                1.9695750592042918-0.010269706994188079i          1.9888698815061703-0.010504099906320164i          0.05491512053005434-0.011007423426572608i
0.036                                             210.8482517142911                                 1.9659032358898232-0.010778514727105738i          1.9875383617691933-0.011054861665174097i          0.05469218306556261-0.011632394041436232i
0.036                                             223.34179607548148                                1.9617909025643554-0.011300486078633664i          1.9860483961709359-0.01162619034816534i           0.054443342967033015-0.01228544282598683i
0.036                                             236.5756294807401                                 1.9571860715205434-0.011833559972112287i          1.984381543779998-0.012217280429481017i           0.05416605986097974-0.01296680378612132i
0.036                                             250.5936168136362                                 1.952030830641204-0.012375123371632836i           1.982517319305795-0.012826969757791034i           0.053857621784474695-0.013676504839209323i
0.036                                             265.4422221154942                                 1.9462607154148381-0.012921928717940774i          1.9804329877704399-0.013453681828875458i          0.05351515357146552-0.014414329918486473i
0.036                                             281.1706625951745                                 1.9398040235535068-0.013470005232164907i          1.9781033417748652-0.014095363374661708i          0.05313563129699413-0.01517977812920824i
0.036                                             297.8310717645051                                 1.9325810690985838-0.014014565472611073i          1.975500460645242-0.01474941816741765i            0.052715904050386946-0.01597202056339629i
0.036                                             315.47867224009644                                1.9245033722209377-0.014549908925452411i          1.972593449850424-0.01541263810409778i            0.05225272435456216-0.016789855684714423i
0.036                                             334.1719587843074                                 1.915472781418882-0.015069325442168695i           1.9693481592674449-0.016081133400753466i          0.05174278858326075-0.017631664595664506i
0.036                                             353.97289219206897                                1.9053805245672086-0.01556500214110572i           1.9657268781361301-0.016750264215145902i          0.05118278865165994-0.018495367945470437i
0.036                                             374.94710466622786                                1.894106185498958-0.016027938440622346i           1.9616880040894564-0.017414576713780217i          0.05056947607625694-0.019378386742970575i
0.036                                             397.16411736214064                                1.8815166028806085-0.01644787500339761i           1.9571856827740666-0.018067747336430365i          0.049899739168963134-0.02027760987268316i
0.036                                             420.6975708225973                                 1.8674646884341408-0.01681324347140954i           1.952169413559151-0.018702539734761475i           0.04917069362278727-0.02118937163835672i