% Model:              A1_caseB_rigid_slab_filter_in_duct_3mic_2loads.mph
% Version:            COMSOL 6.2.0.290
% Date:               Apr 1 2026, 12:45
% Table:              Table 1 - Point Evaluation 1
% l_outlet (m)                                    freq (Hz)                                         Total acoustic pressure (Pa), Point: 2            Total acoustic pressure (Pa), Point: 3            Total acoustic pressure (Pa), Point: 7
0.011                                             49.99999999999999                                 1.9956734348705583-0.033599877094121135i          1.9974618236871395-0.03364239322209847i           2.002570977203691-0.03512275679563641i
0.011                                             52.96268625886442                                 1.9952042892342292-0.03556704717107126i           1.997210448873155-0.03561644271180946i            2.0029257403645904-0.03722255799711618i
0.011                                             56.10092271509817                                 1.994679730269859-0.03764985779418553i            1.9969301900500116-0.03770732524115372i           2.003323077721858-0.039451669489106944i
0.011                                             59.42511137185091                                 1.9940930291610774-0.03985506021500731i           1.9966175502603851-0.03992200784259003i           2.003767961683662-0.041818425601296644i
0.011                                             62.94627058970836                                 1.9934366390684402-0.04218979158291858i           1.9962686080698957-0.042267883367384566i          2.0042659689384625-0.044331757298126176i
0.011                                             66.6760716081662                                  1.9927020914878697-0.044661596096978916i          1.9958789618143928-0.04475279913313999i           2.004823353228699-0.047001248965455i
0.011                                             70.6268772311377                                  1.9918798837631444-0.04727844718159309i           1.9954436708214247-0.04738508802726539i           2.0054471308918145-0.04983720315625293i
0.011                                             74.81178280472167                                 1.9909593499853375-0.050048770529389774i          1.994957186542018-0.05017360218950081i            2.0061451739615745-0.0528507142975167i
0.011                                             79.24465962305565                                 1.989928515851653-0.052981467752610034i           1.994413274949577-0.05312774934955624i            2.006926314346969-0.056053752417272056i
0.011                                             83.94020090612803                                 1.9887739360617833-0.0560859408102483i            1.9938049296684146-0.056257532391230686i          2.007800461099687-0.059459258595403595i
0.011                                             88.91397050194612                                 1.9874805085729308-0.05937211668118716i           1.9931242711342945-0.05957359209728823i           2.0087787290290327-0.06308125339238105i
0.011                                             94.18245447449                                    1.9860312667044764-0.0628504723635265i            1.9923624338785444-0.06308725374042612i           2.0098735842931887-0.06693496049411554i
0.011                                             99.76311574844398                                 1.9844071436272968-0.06653205991510053i           1.9915094377038187-0.06681057794124441i           2.0110990069162367-0.07103694790186578i
0.011                                             105.67445199183237                                1.9825867055952844-0.0704285309040107i            1.9905540404739461-0.0707564160136789i            2.012470672875783-0.07540528924583764i
0.011                                             111.93605692841699                                1.9805458507275102-0.07455216006357532i           1.989483570856688-0.0749384706261511i             2.0140061599768817-0.08005974902026126i
0.011                                             118.56868528308274                                1.9782574674520341-0.07891586743897276i           1.9882837368332678-0.07937136231935396i           2.0157251802197482-0.08502199601221626i
0.011                                             125.59432157547896                                1.9756910470570048-0.08353323799658147i           1.9869384063001172-0.08407070237513747i           2.0176498431416574-0.09031585014313828i
0.011                                             133.0362529899404                                 1.9728122439578957-0.08841853789628536i           1.9854293554758333-0.08905317309769603i           2.019804955470298-0.09596756978039633i
0.011                                             140.91914656322274                                1.9695823759258542-0.09358672587150497i           1.9837359796671066-0.0943366162240761i            2.022218362961457-0.10200618782139034i
0.011                                             149.26913094589798                                1.9659578548588115-0.09905345776318972i           1.9818349595242326-0.09994013029544953i           2.0249213408955016-0.10846390698736999i
0.011                                             158.11388300841895                                1.9618895376248013-0.10483508191277363i           1.9796998751162402-0.10588417812270512i           2.0279490413210746-0.11537656763728747i
0.011                                             167.48271957891376                                1.957321984692287-0.11094862221329332i            1.9773007585924116-0.11219070537250189i           2.0313410064353143-0.12278420452954568i
0.011                                             177.40669461678763                                1.952192611048135-0.11741174452361945i            1.9746035732288478-0.11888327121373352i           2.0351417579928106-0.13073171300246034i
0.011                                             187.91870214422212                                1.9464307124560634-0.1242427011624522i            1.9715696054593546-0.12598719225228389i           2.0394014756343513-0.13926965061301663i
0.011                                             199.05358527674863                                1.9399563451284845-0.131460246024554i             1.968154751696513-0.13352970042040355i            2.044176777400312-0.1484552064976276i
0.011                                             210.8482517142911                                 1.932679033726566-0.13908351085073958i            1.9643086787320623-0.14154011554774537i           2.0495316190062582-0.1583533796428911i
0.011                                             223.34179607548148                                1.9244962767106442-0.14713182991913185i           1.959973830625716-0.1500500327320195i             2.055538330468438-0.16903841825635715i
0.011                                             236.5756294807401                                 1.9152918112466133-0.15562449591482194i           1.9550842479922736-0.15909352355036388i           2.0622788114241755-0.1805955867516085i
0.011                                             250.5936168136362                                 1.9049335913670917-0.16458042390194555i           1.949564156608844-0.168707348793607i              2.069845909666652-0.1931233461438394i
0.011                                             265.4422221154942                                 1.8932714224756273-0.17401769210390797i           1.9433262706995988-0.17893117805262335i           2.0783450110097696-0.20673605921681013i
0.011                                             281.1706625951745                                 1.8801341807012113-0.1839529162397153i            1.9362697399482716-0.18980780726120522i           2.087895870963019-0.22156736567423083i
0.011                                             297.8310717645051                                 1.8653265282261626-0.19440039807709858i           1.9282776490617726-0.2013833595119475i            2.0986347215922256-0.23777441921366183i
0.011                                             315.47867224009644                                1.8486250120256733-0.20537096502281982i           1.919213950333432-0.2137074443973044i             2.1107166865636255-0.2555432413375408i
0.011                                             334.1719587843074                                 1.8297734034564486-0.21687038392447033i           1.9089196721975776-0.22683323609002765i           2.124318533497908-0.27509553409267334i
0.011                                             353.97289219206897                                1.80847709669914-0.22889718269433898i             1.897208195422101-0.24081740608852856i            2.139641780350195-0.29669741469307803i
0.011                                             374.94710466622786                                1.7843963328698946-0.24143964058088352i           1.8838593184984544-0.2557198083656777i            2.156916145294382-0.32067070437369394i
0.011                                             397.16411736214064                                1.7571379504090359-0.25447159954000637i           1.8686117374754527-0.27160275394113154i           2.1764032756960603-0.3474076432549813i
0.011                                             420.6975708225973                                 1.7262452769966814-0.26794658553906375i           1.851153431879348-0.28852961426786006i            2.1984005897048142-0.37739024406367505i
0.011                                             445.6254690668729                                 1.6911856711744309-0.2817894789516635i            1.83110926332939-0.30656233486852885i             2.2232448770437983-0.4112159877623304i
0.011                                             472.0304381429617                                 1.6513350918011807-0.2958845869803562i            1.8080248361236322-0.3257571820461229i            2.25131496627114-0.44963227372020154i
0.011                                             499.99999999999994                                1.6059589282230131-0.3100583659555949i            1.7813453134933923-0.3461576172779757i            2.2830321531763147-0.49358307006594543i
0.011                                             529.6268625886448                                 1.554188190969118-0.32405408053306406i            1.7503873979532094-0.3677824752727878i            2.3188559764862076-0.5442727171910927i
0.011                                             561.0092271509814                                 1.4949901181425025-0.3374941422619439i            1.7143020414729047-0.39060639970360594i           2.359270909475934-0.6032540306471541i
0.011                                             594.2511137185094                                 1.4271324858008938-0.34982335907922546i           1.6720246541619512-0.4145273838554162i            2.4047558320201423-0.6725509995393057i
0.011                                             629.4627058970837                                 1.3491418703495999-0.3602222122415901i            1.6222087412134898-0.4393125841170597i            2.4557212767601677-0.7548307542172047i
0.011                                             666.7607160816619                                 1.259258840967162-0.36747251711498224i            1.5631384511624618-0.46450707870189484i           2.5123865618166263-0.8536451031782708i
0.011                                             706.2687723113777                                 1.1553999643594626-0.3697468194453304i            1.4926167751404982-0.48927870918827415i           2.5745445579240096-0.9737677625047344i
0.011                                             748.1178280472163                                 1.0351530950422225-0.3642755452634894i            1.4078327206944972-0.512151745728861i             2.6411155860972246-1.1216548303773606i
0.011                                             792.4465962305569                                 0.8958712090808703-0.3468209975241834i            1.3052322671504013-0.5305469725825653i            2.709304883341037-1.3060379056007405i
0.011                                             839.4020090612802                                 0.7350185998909794-0.31086048101231917i           1.1804787087691193-0.5399897517775473i            2.7730199763039383-1.53857633257325i
0.011                                             889.1397050194613                                 0.5511178518456853-0.24638770820283162i           1.0287472287139903-0.5327774088382349i            2.819945889473597-1.834222284375176i
0.011                                             941.8245447449009                                 0.34603742328039555-0.13842175155820613i          0.8459836102891528-0.49588985788295686i           2.826381349867206-2.210174855450353i
0.011                                             997.6311574844393                                 0.1299724477289382+0.03389330594271448i           0.6325591465777824-0.40832769647885914i           2.7491705069195183-2.68037759349695i
0.011                                             1056.7445199183237                                -0.06937297161288264+0.2942770024367042i          0.4018281687292129-0.2399632436240726i            2.5171501635829343-3.2389485755101397i
0.011                                             1119.36056928417                                  -0.19570839795996664+0.6542670640109082i          0.19489408971326144+0.04066100837731627i          2.0362804997488975-3.824488213834674i
0.011                                             1185.6868528308275                                -0.16886522998924305+1.0781335208416922i          0.09047262879104354+0.4362595833082017i           1.2436269376264948-4.278178115707705i
0.011                                             1255.943215754791                                 0.0606032245032647+1.4524905958943104i            0.1727738381360147+0.8750851175895026i            0.22364589641260205-4.37587614811357i
0.011                                             1330.362529899404                                 0.42999618621959196+1.6385447675473943i           0.44562003146726775+1.2212626433346412i           -0.7504527459321789-4.010240710768894i
0.011                                             1409.1914656322274                                0.7874326376936999+1.594579936222856i             0.8032209653899565+1.3822869778096645i            -1.4140530478770394-3.328224207875565i
0.011                                             1492.69130945898                                  1.0197250710879604+1.3958084268075601i            1.1253240345397457+1.3747687772284662i            -1.713920399802944-2.5853536233924936i
0.011                                             1581.1388300841895                                1.1056210460470244+1.140635999436295i             1.356522992386366+1.2697143397872213i             -1.7545403014623355-1.944728579249698i
0.011                                             1674.8271957891395                                1.073991148585491+0.8900043019482669i             1.4961888738172744+1.127411618645549i             -1.658408027857255-1.4502028340908857i
0.011                                             1774.0669461678763                                0.9605504492186295+0.6680742587989554i            1.5633298960841613+0.9811032288108179i            -1.5073060466753183-1.085978527118914i
0.011                                             1879.1870214422213                                0.7923578536262897+0.4795257960134349i            1.5773259540391942+0.8448408600565602i            -1.344277254074897-0.8214889485270764i
0.011                                             1990.5358527674864                                0.5871088713765569+0.3215985220781618i            1.5526048132355543+0.7228617203110276i            -1.1888167912441283-0.6290436174204764i
0.011                                             2108.482517142911                                 0.3560747773557436+0.1896947261276587i            1.4987481467011594+0.6151984813611069i            -1.0483467630480814-0.4877029437502813i
0.011                                             2233.417960754817                                 0.10684340890759819+0.07947070736632729i          1.4217945173886977+0.5203807899462136i            -0.9246436558552639-0.38261392018153784i
0.011                                             2365.756294807401                                 -0.15478809461467935-0.012569404939784581i        1.3254337395290179+0.43659722316603117i           -0.8170529000762687-0.3034575001061513i
0.011                                             2505.936168136362                                 -0.42359928422177145-0.08903184337964838i         1.211863958097843+0.36214641205355597i            -0.7240087905279631-0.24307668769298968i
0.011                                             2654.422221154942                                 -0.6941661268918096-0.15176220581948943i          1.0823659054323107+0.29558274744745106i           -0.6437228077495879-0.1964716133290354i
0.011                                             2811.706625951745                                 -0.9603445818982206-0.2020071259415956i           0.9376864731450205+0.23573904465975068i           -0.5744771790282522-0.160109621677736i
0.011                                             2978.3107176450544                                -1.2149238759974341-0.2405658914586838i           0.7783046182908699+0.1817046132603705i            -0.514735277756658-0.13146211138857486i
0.011                                             3154.7867224009647                                -1.4494091033433008-0.2679241813098727i           0.604628928783636+0.13279109085995192i            -0.4631695737216158-0.10869479753764905i
0.011                                             3341.719587843074                                 -1.653929356564156-0.2843734807897396i            0.41715852328549247+0.08849846163187705i          -0.4186546265907385-0.09045952378004932i
0.011                                             3539.72892192069                                  -1.817293831672964-0.29012229457430594i           0.21662733270968013+0.048485225804422986i         -0.380247278290538-0.07575299736894428i
0.011                                             3749.4710466622787                                -1.9272384568956467-0.28540454000094895i          0.004144300685401969+0.012543202177588081i        -0.34716418648165553-0.06381981547380002i
0.011                                             3971.6411736214104                                -1.9709209148651579-0.2705883861653873i           -0.21866305597658814-0.01942391095758744i         -0.3187612041468425-0.05408505705182819i
0.011                                             4206.975708225973                                 -1.9357312217819187-0.24628585816137424i          -0.4494981835209359-0.047419542180418696i         -0.29451655850357866-0.04610682094023633i
0.011                                             4456.2546906687285                                -1.8104845823289744-0.2134598535665163i           -0.6852381004924262-0.07137220667321331i          -0.2740187693909323-0.039542373980446396i
0.011                                             4720.304381429617                                 -1.5870468385169345-0.1735208756652364i           -0.9217727550673016-0.09115370702492687i          -0.2569600780710864-0.03412369202006391i
0.011                                             4999.999999999999                                 -1.2624018555283367-0.12840090967570178i          -1.1538490978701241-0.10659877354189713i          -0.2431365930425784-0.02963955663042866i
0.011                                             5296.268625886442                                 -0.8410941377340158-0.080586584944495i            -1.3749331343497944-0.11752746460186664i          -0.2324574836396953-0.02592227688678235i
0.011                                             5610.0922715098195                                -0.3378577523667777-0.033088102885825296i         -1.5771100780500684-0.12377213608676221i          -0.22496783249714278-0.022837691059809182i
0.011                                             5942.5111371850935                                0.21993457440935726+0.010685165351363707i         -1.7510518104491395-0.1252113754622438i           -0.22089438509880968-0.020277421470479565i
0.036                                             49.99999999999999                                 1.9910714458269478-0.07937711681579428i           1.9936986240836323-0.07949620777055155i           2.0060161337426274-0.08322653624358141i
0.036                                             52.96268625886442                                 1.9900361481309723-0.08405898320162672i           1.992983588172892-0.08419947669411681i            2.006765006626783-0.08827849434179837i
0.036                                             56.10092271509817                                 1.9888751738557806-0.08901755636127032i           1.9921819438172903-0.08918341181402235i           2.007600410537555-0.09365094328803258i
0.036                                             59.42511137185091                                 1.9875729436512293-0.09426911633260006i           1.9912828806972662-0.09446503965336396i           2.0085321732949493-0.09936616251701526i
0.036                                             62.94627058970836                                 1.9861119145834583-0.0998308797464554i            1.9902742075081845-0.10006246612063753i           2.009571275705737-0.10544831230044761i
0.036                                             66.6760716081662                                  1.9844723210279867-0.105721048051504i             1.9891421640822824-0.10599495252099524i           2.0107299865612953-0.11192365671467401i
0.036                                             70.6268772311377                                  1.9826318818730173-0.1119588570575405i            1.9878712085311516-0.11228299843895298i           2.0120220137971776-0.11882082345534013i
0.036                                             74.81178280472167                                 1.9805654654419942-0.11856462617708327i           1.9864437718533623-0.11894843102403177i           2.01346266941502-0.12617110586568667i
0.036                                             79.24465962305565                                 1.978244705638241-0.12555980652632912i            1.9848399746815821-0.1260145012479214i            2.015069048889128-0.13400881474489312i
0.036                                             83.94020090612803                                 1.9756375626217184-0.13296702678913774i           1.9830373007736481-0.13350598775711028i           2.016860226765699-0.14237168901989394i
0.036                                             88.91397050194612                                 1.972707817531998-0.14081013449165616i            1.9810102181883649-0.1414493080745173i            2.018857467760579-0.15130137535764263i
0.036                                             94.18245447449                                    1.9694144912752587-0.14911423051144732i           1.978729739735596-0.1498726375641697i             2.0210844548509654-0.16084398990028326i
0.036                                             99.76311574844398                                 1.9657111747707405-0.15790569337606916i           1.9761629118128845-0.1588060359049852i            2.0235675352204896-0.17105077779679204i
0.036                                             105.67445199183237                                1.9615452527031583-0.16721218825389564i           1.9732722155140763-0.16828157991908277i           2.0263359817018487-0.18197888937014092i
0.036                                             111.93605692841699                                1.9568570057637802-0.1770626551795541i            1.9700148669749211-0.17833350219359126i           2.0294222730122127-0.1936922977250635i
0.036                                             118.56868528308274                                1.9515785650181856-0.18748726729241796i           1.966341992632919-0.18899833236306415i            2.0328623873826435-0.2062628868744648i
0.036                                             125.59432157547896                                1.9456326939092639-0.19851734847942515i           1.9621976570000215-0.2003150380622019i            2.0366961092947204-0.2197717486427654i
0.036                                             133.0362529899404                                 1.9389313620544364-0.21018523442331682i           1.9575177090858353-0.21232515910252928i           2.040967340788082-0.2343107348000772i
0.036                                             140.91914656322274                                1.9313740721063324-0.22252405674810632i           1.9522284104950394-0.2250729266133467i            2.045724409305437-0.24998432442172733i
0.036                                             149.26913094589798                                1.9228458869874383-0.2355674209821117i            1.9462447937139016-0.23860535310829778i           2.0510203528505624-0.2669118806924427i
0.036                                             158.11388300841895                                1.9132150976250526-0.24934893965678417i           1.9394686910045582-0.25297227418914925i           2.056913158355289-0.28523039267304073i
0.036                                             167.48271957891376                                1.902330452957242-0.26390156582328617i            1.931786354356651-0.2682263119298331i             2.0634659110722895-0.30509782187708295i
0.036                                             177.40669461678763                                1.8900178582973226-0.27925665194132127i           1.9230655686878784-0.2844227166763227i            2.0707467944815936-0.3266972069807111i
0.036                                             187.91870214422212                                1.8760764236619032-0.29544262853040176i           1.9131521318469793-0.3016190225945905i            2.078828847303056-0.3502417211404428i
0.036                                             199.05358527674863                                1.8602737175119795-0.31248315501690177i           1.9018655423083113-0.31987442237411184i           2.087789340152275-0.3759809308728358i
0.036                                             210.8482517142911                                 1.8423400456703865-0.33039453325525375i           1.8889936895277082-0.33924872030926145i           2.097708564349013-0.404208573455489i
0.036                                             223.34179607548148                                1.821961536982193-0.349182086510813i              1.874286287810266-0.3598006559931803i             2.1086677257904083-0.4352722583054354i
0.036                                             236.5756294807401                                 1.798771770520135-0.36883507753178946i            1.857446722884252-0.3815852887200013i             2.120745483000963-0.4695856077436027i
0.036                                             250.5936168136362                                 1.772341632326182-0.38931955144217095i            1.8381218947074158-0.404649979807748i             2.134012439097734-0.5076434895938041i
0.036                                             265.4422221154942                                 1.7421670487959604-0.41056821276066574i           1.8158895382737985-0.42902827826216405i           2.148522548187238-0.5500411579357972i
0.036                                             281.1706625951745                                 1.707654228011131-0.43246603675489215i            1.7902423926559685-0.4547306613349234i            2.164299862727188-0.5974983010025288i
0.036                                             297.8310717645051                                 1.6681020891324891-0.4548297092598096i            1.7605684862880655-0.48173054010734423i           2.1813182288155013-0.6508891717255724i
0.036                                             315.47867224009644                                1.6226817519853545-0.47737809136457926i           1.7261267595717422-0.5099431098696602i            2.199470274790302-0.7112800821415258i
0.036                                             334.1719587843074                                 1.5704134469029694-0.49968957927782787i           1.686017355199096-0.5391933491431723i             2.218520093394559-0.7799754261749983i
0.036                                             353.97289219206897                                1.5101422884985396-0.5211402987542223i            1.6391463917307663-0.5691675247486441i            2.2380310368846885-0.8585727382522648i
0.036                                             374.94710466622786                                1.4405166019486937-0.5408143319109529i            1.5841863422821745-0.5993396272707682i            2.2572555291739023-0.9490254262117788i
0.036                                             397.16411736214064                                1.35997696562537-0.557373491076062i               1.5195361706850017-0.6288598723688084i            2.2749671506245788-1.0537073833310837i
0.036                                             420.6975708225973                                 1.2667727905328277-0.5688697691298484i            1.4432918948235545-0.6563865012448081i            2.289206004782205-1.175464012057157i
0.036                                             445.6254690668729                                 1.159039508597355-0.5724799504813289i             1.353251579605224-0.679835042754105i              2.2968970722043864-1.3176142008346707i