% Model:              A1_caseC_silicone_slab_in_duct_3mic_2loads.mph
% Version:            COMSOL 6.2.0.290
% Date:               Apr 2 2026, 14:30
% Table:              Table 2 - Point Evaluation 1
% l_outlet (m)                                    freq (Hz)                                         Total acoustic pressure (Pa), Point: 2            Total acoustic pressure (Pa), Point: 3            Total acoustic pressure (Pa), Point: 7
0.011                                             49.99999999999999                                 1.9983003833790172-7.493428307875682E-5i          1.9994746096533906-7.497834444500085E-5i          0.00360524060127833+5.370645479594619E-5i
0.011                                             52.96268625886442                                 1.998093031873271-7.93688840728999E-5i            1.999410505663678-7.942124885158185E-5i           0.003606954772702495+5.216594553021883E-5i
0.011                                             56.10092271509817                                 1.9978603883893842-8.40652408342197E-5i           1.9993385808319395-8.412747421169352E-5i          0.0036086375220213767+5.067940120483927E-5i
0.011                                             59.42511137185091                                 1.9975993683891493-8.903863127198676E-5i          1.999257880426082-8.91125934977003E-5i            0.00361029549359111+4.92462393041933E-5i
0.011                                             62.94627058970836                                 1.9973065127002556-9.43052492651471E-5i           1.9991673344393106-9.439315132687094E-5i          0.0036119355806506926+4.786558812134159E-5i
0.011                                             66.6760716081662                                  1.9969779401124723-9.988218885669323E-5i          1.9990657416994282-9.998665861112439E-5i          0.0036135649455921854+4.653629444582155E-5i
0.011                                             70.6268772311377                                  1.996609297085243-1.0578753335549563E-4i          1.9989517548998206-1.0591169417893928E-4i         0.0036151910435861328+4.5256930164465845E-5i
0.011                                             74.81178280472167                                 1.9961956997167365-1.1204034717527412E-4i         1.9988238621582737-1.1218791139480121E-4i         0.0036168216512081877+4.4025798511994685E-5i
0.011                                             79.24465962305565                                 1.9957316696618712-1.1866074466957354E-4i         1.9986803673011286-1.1883612464160681E-4i         0.00361846489897444+4.284093935979029E-5i
0.011                                             83.94020090612803                                 1.9952110619045946-1.256699581519538E-4i          1.9985193673465922-1.2587839833030215E-4i         0.0036201293144277327+4.170013533244346E-5i
0.011                                             88.91397050194612                                 1.994626984061117-1.3309037880670873E-4i          1.9983387274967943-1.3333811273232542E-4i         0.0036218238589960953+4.060091944228685E-5i
0.011                                             94.18245447449                                    1.9939717054584858-1.4094559401944993E-4i         1.998136052591711-1.412400309258905E-4i           0.0036235579802247958+3.95405868897459E-5i
0.011                                             99.76311574844398                                 1.9932365558310015-1.4926045411498592E-4i         1.9979086556544496-1.4961040080626524E-4i         0.00362534166523897+3.851621237660268E-5i
0.011                                             105.67445199183237                                1.9924118113715144-1.5806109735001648E-4i         1.9976535221399645-1.584770219363719E-4i          0.003627185504192088+3.75246753598447E-5i
0.011                                             111.93605692841699                                1.9914865675060904-1.6737499035941327E-4i         1.9973672702325707-1.6786933579264178E-4i         0.003629100768647033+3.6562694860986404E-5i
0.011                                             118.56868528308274                                1.9904485964058074-1.7723101781076154E-4i         1.9970461062853142-1.7781857480831157E-4i         0.003631099505554252+3.562687489057291E-5i
0.011                                             125.59432157547896                                1.9892841870657414-1.8765944276197898E-4i         1.9966857744291309-1.8835779298505094E-4i         0.003633194654016488+3.471376128858695E-5i
0.011                                             133.0362529899404                                 1.9879779669130697-1.9869200860224038E-4i         1.9962815006445647-1.9952205187329311E-4i         0.0036354001916177746+3.381990875988577E-5i
0.011                                             140.91914656322274                                1.986512701995784-2.103619104616865E-4i           1.9958279298082529-2.113484915284213E-4i          0.0036377313135276612+3.294195692952572E-5i
0.011                                             149.26913094589798                                1.984869073334835-2.2270381552409887E-4i          1.9953190549163407-2.2387646945682064E-4i         0.003640204653419583+3.207671207320277E-5i
0.011                                             158.11388300841895                                1.9830254274466597-2.3575387254867804E-4i         1.9947481382670882-2.371477113315952E-4i          0.0036428385505247944+3.12212305960114E-5i
0.011                                             167.48271957891376                                1.9809574970969233-2.4954968016215653E-4i         1.9941076226110284-2.5120644719144194E-4i         0.003645653367937174+3.0372899529050378E-5i
0.011                                             177.40669461678763                                1.9786380899019893-2.6413022796356665E-4i         1.99338903201233-2.66099552318742E-4i             0.0036486718666161565+2.9529508867878676E-5i
0.011                                             187.91870214422212                                1.976036740551731-2.795358435932606E-4i           1.9925828605134537-2.81876732337643E-4i           0.003651919638699331+2.8689310429815875E-5i
0.011                                             199.05358527674863                                1.9731193231430613-2.958080742649947E-4i          1.9916784475959777-2.985906879285436E-4i          0.003655425602783316+2.785105909312671E-5i
0.011                                             210.8482517142911                                 1.96984761921832-3.1298954197357616E-4i           1.990663838735531-3.162973073793578E-4i           0.003659222563526858+2.701403289295784E-5i
0.011                                             223.34179607548148                                1.9661788366953805-3.3112374545193375E-4i         1.9895256291216288-3.350558703664E-4i             0.003663347838811874+2.6178030326977572E-5i
0.011                                             236.5756294807401                                 1.9620650750860504-3.502547924804001E-4i          1.9882487890000606-3.5492925895129593E-4i         0.003667843959105731+2.5343344787379868E-5i
0.011                                             250.5936168136362                                 1.9574527312808379-3.7042708434945786E-4i         1.9868164681263856-3.7598421296699663E-4i         0.003672759445050125+2.4510717807202726E-5i
0.011                                             265.4422221154942                                 1.9522818402826547-3.9168485086077214E-4i         1.9852097770272665-3.9829154495299636E-4i         0.0036781496731726417+2.3681274431058982E-5i
0.011                                             281.1706625951745                                 1.9464853450718544-4.140716554763705E-4i          1.9834075426309452-4.2192645759444827E-4i         0.003684077843554169+2.285644486375422E-5i
0.011                                             297.8310717645051                                 1.939988289032804-4.3762969530783695E-4i          1.9813860350302914-4.4696881203879873E-4i         0.003690616068171075+2.2037877658824142E-5i
0.011                                             315.47867224009644                                1.9327069247839976-4.623989780262972E-4i          1.9791186624221877-4.735034617576254E-4i          0.003697846604638276+2.1227349441849306E-5i
0.011                                             334.1719587843074                                 1.9245477328930813-4.884163065959795E-4i          1.9765756305988167-5.016206199164603E-4i          0.0037058632669494168+2.0426676046998223E-5i
0.011                                             353.97289219206897                                1.9154063441825555-5.157140176036118E-4i          1.9737235630792562-5.314162509084188E-4i          0.0037147730529700387+1.9637629288366593E-5i
0.011                                             374.94710466622786                                1.9051663598480277-5.44318431221399E-4i           1.9705250777037804-5.629924987966567E-4i          0.003724698037569544+1.8861862509429144E-5i
0.011                                             397.16411736214064                                1.8936980643860664-5.742479824120346E-4i          1.9669383151385018-5.964581896215504E-4i          0.0037357775924220923+1.8100847061687292E-5i
0.011                                             420.6975708225973                                 1.8808570274540848-6.055109355297867E-4i          1.9629164142424012-6.319293901277506E-4i          0.003748171007566436+1.735582078283639E-5i
0.011                                             445.6254690668729                                 1.8664825927515327-6.381025929514759E-4i          1.9584069289945283-6.695300322570183E-4i          0.003762060607268277+1.662774862832139E-5i
0.011                                             472.0304381429617                                 1.8503962545941688-6.72001927632719E-4i           1.9533511812667566-7.093926563365807E-4i          0.0037776554773755644+1.5917294588649238E-5i
0.011                                             499.99999999999994                                1.8323999265214643-7.071674717469696E-4i          1.9476835434089301-7.516592536065315E-4i          0.003795195950724378+1.5224803528325424E-5i
0.011                                             529.6268625886448                                 1.8122741111575695-7.435323434859376E-4i          1.9413306442783704-7.96482278244611E-4i           0.0038149590380114192+1.4550290828909386E-5i
0.011                                             561.0092271509814                                 1.7897759871969892-7.809982017008394E-4i          1.9342104922070709-8.440258507889803E-4i          0.003837265045421158+1.3893437314249455E-5i
0.011                                             594.2511137185094                                 1.764637437974177-8.194278979988367E-4i           1.9262315082518184-8.944672163486964E-4i          0.003862485692790954+1.3253586482787375E-5i
0.011                                             629.4627058970837                                 1.7365630572855568-8.586365404240052E-4i          1.917291463129485-9.479985456532525E-4i           0.003891054144597294+1.2629740542131569E-5i
0.011                                             666.7607160816619                                 1.7052281826113223-8.983805819232098E-4i          1.9072763115621416-0.0010048291699531814i         0.003923477501897746+1.2020551202291345E-5i
0.011                                             706.2687723113777                                 1.6702770242070042-9.383444895093272E-4i          1.896058918273022-0.0010651884308669724i          0.003960352491233583+1.1424300254397084E-5i
0.011                                             748.1178280472163                                 1.631320981803363-9.78124341858806E-4i            1.8834976708523208-0.0011293293073554155i         0.004002385351023011+1.0838863964955949E-5i
0.011                                             792.4465962305569                                 1.5879372697552345-0.0010172076130763707i         1.8694349761655293-0.0011975331776528488i         0.004050417292475525+1.0261653287339854E-5i
0.011                                             839.4020090612802                                 1.5396680076492424-0.0010549480368673093i         1.8536956390238972-0.001270116090129117i          0.00410545745577832+9.689519455346598E-6i
0.011                                             889.1397050194613                                 1.486019977954349-0.0010905341306292752i          1.8360851247079832-0.0013474371761834345i         0.004168726080028474+9.118610181603232E-6i
0.011                                             941.8245447449009                                 1.426465306674538-0.0011229493844469615i          1.8163877107255015-0.0014299101018125872i         0.004241711795938175+8.544155083008782E-6i
0.011                                             997.6311574844393                                 1.360443388645484-0.0011509212763011181i          1.7943645381244744-0.0015180188795625577i         0.004326248760716381+7.960148260923241E-6i
0.011                                             1056.7445199183237                                1.2873644573705612-0.0011728549962462947i         1.7697515788269114-0.00161234005463846i           0.004424622165341417+7.358878214838244E-6i
0.011                                             1119.36056928417                                  1.2066152912669565-0.0011867457104130141i         1.742257542945341-0.0017135743525199998i          0.004539715109479351+6.730225391058807E-6i
0.011                                             1185.6868528308275                                1.117567654018114-0.001190059868194887i           1.7115617585297511-0.0018225926536382425i         0.0046752171160866045+6.0605958469530565E-6i
0.011                                             1255.943215754791                                 1.0195901854230112-0.0011795704496390062i         1.6773120649826656-0.0019405041363834573i         0.004835926761091347+5.3312669897450575E-6i
0.011                                             1330.362529899404                                 0.9120645869632221-0.0011511212953074592i         1.6391227683793734-0.002068759579739432i          0.005028202030924541+4.515750410269198E-6i
0.011                                             1409.1914656322274                                0.7944070751051573-0.0010992780662452935i         1.5965727074689515-0.0022093120891337396i         0.005260650002582097+3.5754478096788416E-6i
0.011                                             1492.69130945898                                  0.6660961884179887-0.0010167902368204873i         1.549203462542798-0.0023648748499572113i          0.005545218631664536+2.452212608227357E-6i
0.011                                             1581.1388300841895                                0.5267080986657711-8.937230007870116E-4i          1.4965176811429746-0.0025393495747439462i         0.005898993566484828+1.0550166779669263E-6i
0.011                                             1674.8271957891395                                0.3759605222889104-7.159808433787685E-4i          1.4379773360381096-0.002738570162135766i          0.0063472951087932775-7.652900050692174E-7i
0.011                                             1774.0669461678763                                0.2137660033172423-4.626372003455635E-4i          1.3730013226334383-0.0029716638402894928i         0.006929323214038272-3.2670281117126836E-6i
0.011                                             1879.1870214422213                                0.040294356460870706-1.0073563447822311E-4i       1.3009607315504006-0.0032537138288851134i         0.00770918469110607-6.929761496218561E-6i
0.011                                             1990.5358527674864                                -0.14395869452927346+4.2580020053661167E-4i       1.2211671205815409-0.0036114330813799916i         0.008799419990450663-1.2727523845731394E-5i
0.011                                             2108.482517142911                                 -0.338108004585993+0.0012228103658159398i         1.1328396024162197-0.004096712032286249i          0.01041740859695717-2.2894539800849596E-5i
0.011                                             2233.417960754817                                 -0.5408622389675793+0.0025213728505900845i        1.0350007599119946-0.004824558954687785i          0.013044532302061916-4.353683319926145E-5i
0.011                                             2365.756294807401                                 -0.7507415109163368+0.004952404839568948i         0.9260743300326661-0.006108460733614455i          0.018001709183877772-9.669993150898546E-5i
0.011                                             2505.936168136362                                 -0.9678620778982618+0.011113234921415725i         0.8015430743387025-0.00920213594941153i           0.030694133692547167-3.182430307357037E-4i
0.011                                             2654.422221154942                                 -1.233340242974575+0.06104247957186257i           0.6026418955220084-0.0298055903821418i            0.129984376832237-0.006316100731013705i
0.011                                             2811.706625951745                                 -1.3269732009609494-0.02648921333076565i          0.5983383677142288+0.011947579163414336i          -0.052069133438271374-0.0010923990701461282i
0.011                                             2978.3107176450544                                -1.5348803577716719-0.01226370931192856i          0.4279754930623615+0.003420050269139562i          -0.020809320416735073-1.8436162665130847E-4i
0.011                                             3154.7867224009647                                -1.707771950108065-0.0082571896183009i            0.26271175102219907+0.001270417629669099i         -0.012679764115083895-7.07712326224095E-5i
0.011                                             3341.719587843074                                 -1.8483726075765878-0.006208744238376961i         0.08938332656290672+3.003358846835133E-4i         -0.008963484178170365-3.5686098735238915E-5i
0.011                                             3539.72892192069                                  -1.948294099912722-0.004850505086758765i          -0.09354050946187957-2.3282381019243772E-4i       -0.0068478074100039405-2.0420773582167217E-5i
0.011                                             3749.4710466622787                                -1.9970383675925487-0.003805858288119553i         -0.28575089332690845-5.44532451788224E-4i         -0.005491094642689618-1.2412640037737129E-5i
0.011                                             3971.6411736214104                                -1.983404219629188-0.002930319553659259i          -0.486040073102115-7.180573069960624E-4i          -0.004553099997390753-7.670441558466546E-6i
0.011                                             4206.975708225973                                 -1.8964725849653394-0.002164647716611292i         -0.6924118589678688-7.903020209507467E-4i         -0.0038691869239710895-4.602487169267992E-6i
0.011                                             4456.2546906687285                                -1.726801386602216-0.0014889914556276563i         -0.90202062160214-7.777782373559774E-4i           -0.0033485360123755924-2.4700768539025768E-6i
0.011                                             4720.304381429617                                 -1.467973594634959-9.052499904302172E-4i          -1.1110598171527242-6.85135770655583E-4i          -0.0029341860730090047-8.905960509329465E-7i
0.011                                             4999.999999999999                                 -1.1185268506903336-4.3013740843173784E-4i        -1.31463825915176-5.05535297872438E-4i            -0.0025828553240709482+3.48491242949204E-7i
0.011                                             5296.268625886442                                 -0.6842009319536728-9.629336718538002E-5i         -1.5066675779152823-2.1202310401801443E-4i        -0.002247778995425129+1.3559132191175555E-6i
0.011                                             5610.0922715098195                                -0.1803079238732064+2.9608649978357336E-5i        -1.6797871456095437+2.7590473152609636E-4i        -0.0018439161444809091+2.1022465197764656E-6i
0.011                                             5942.5111371850935                                0.3662118704047273-2.522387250054386E-4i          -1.8253744533240992+0.0012572505925281022i        -0.001096362555085742+1.9387349985269645E-6i
0.036                                             49.99999999999999                                 1.998300382276453-7.499622529962744E-5i           1.9994746096853504-7.504029910551926E-5i          0.001501636807615161+9.275701401120014E-6i
0.036                                             52.96268625886442                                 1.9980930304300568-7.943453722537775E-5i          1.999410505494234-7.948691917457774E-5i           0.001502011535243128+9.00191885277627E-6i
0.036                                             56.10092271509817                                 1.99786038653947-8.413482047280317E-5i            1.9993385804121935-8.419707685114092E-5i          0.0015023910191972064+8.737755861930557E-6i
0.036                                             59.42511137185091                                 1.9975993662908007-8.911237631853525E-5i          1.9992578799334353-8.918636870857341E-5i          0.0015027776326832928+8.483064012046343E-6i
0.036                                             62.94627058970836                                 1.9973065101104428-9.438341042876082E-5i          1.999167333652405-9.447135142189592E-5i           0.0015031739419338055+8.237646805743526E-6i
0.036                                             66.6760716081662                                  1.996977937135514-9.996503586532226E-5i           1.9990657407468737-1.0006955525175478E-4i         0.0015035827268363717+8.001260931979443E-6i
0.036                                             70.6268772311377                                  1.996609293575181-1.0587533436060772E-4i          1.9989517536626977-1.0599955782113062E-4i         0.0015040070060080317+7.773617351397916E-6i
0.036                                             74.81178280472167                                 1.9961956955435578-1.1213339650630143E-4i         1.9988238605371105-1.1228103914563449E-4i         0.0015044500659313026+7.554382284373703E-6i
0.036                                             79.24465962305565                                 1.9957316647385026-1.1875935609632927E-4i         1.998680365243184-1.189348336059175E-4i           0.0015049154930098132+7.3431780534404344E-6i
0.036                                             83.94020090612803                                 1.9952110563006071-1.257744703387995E-4i          1.998519364960029-1.2598303118269906E-4i          0.0015054072103697887+7.139584031818159E-6i
0.036                                             88.91397050194612                                 1.994626977670225-1.3320114629352225E-4i          1.9983387247186177-1.3344902881378467E-4i         0.0015059295186902882+6.943137908453079E-6i
0.036                                             94.18245447449                                    1.9939716981720152-1.4106299581444142E-4i         1.9981360493622244-1.4135761500472634E-4i         0.001506487142364291+6.7533376195264475E-6i
0.036                                             99.76311574844398                                 1.993236547416125-1.4938487042525872E-4i          1.997908651794905-1.4973503994071462E-4i          0.0015070852816097113+6.5696442778486865E-6i
0.036                                             105.67445199183237                                1.992411801780272-1.5819295572885004E-4i          1.9976535176642856-1.586091519384176E-4i          0.0015077296719530758+6.391486396513577E-6i
0.036                                             111.93605692841699                                1.9914865565519058-1.675147386612985E-4i          1.9973672650231706-1.680094143911889E-4i          0.0015084266514253414+6.218265836745858E-6i
0.036                                             118.56868528308274                                1.9904485839459165-1.7737912480793165E-4i         1.997046100277159-1.779670825743954E-4i           0.001509183238581852+6.0493654604802394E-6i
0.036                                             125.59432157547896                                1.989284172849273-1.8781640730933716E-4i          1.9966857674585359-1.8851524289469616E-4i         0.001510007221840113+5.884158779584547E-6i
0.036                                             133.0362529899404                                 1.9879779508081032-1.9885836242517315E-4i         1.9962814926779775-1.9968899255483862E-4i         0.0015109072630820133+5.722021241602739E-6i
0.036                                             140.91914656322274                                1.9865126836648064-2.1053820638389906E-4i         1.9958279206182876-2.1152549597299548E-4i         0.001511893017302136+5.562343066693177E-6i
0.036                                             149.26913094589798                                1.9848690525643122-2.228906605915721E-4i          1.9953190444141877-2.2406416892856192E-4i         0.001512975271369748+5.404542906200477E-6i
0.036                                             158.11388300841895                                1.9830254039036768-2.359518984972682E-4i          1.9947481262598212-2.3734676647053872E-4i         0.0015141661039240202+5.24808179694708E-6i
0.036                                             167.48271957891376                                1.9809574704433381-2.4975955397497045E-4i         1.9941076089178926-2.5141755952347425E-4i         0.0015154790698624768+5.092476437290713E-6i
0.036                                             177.40669461678763                                1.9786380597046378-2.6435265653446143E-4i         1.9933890163775942-2.6632347003383163E-4i         0.0015169294120013614+4.937310995200771E-6i
0.036                                             187.91870214422212                                1.9760367063701942-2.797715810002915E-4i          1.9925828426965546-2.8211425892450285E-4i         0.0015185343035425236+4.7822465105003314E-6i
0.036                                             199.05358527674863                                1.9731192844765444-2.960579146454875E-4i          1.991678427321379-2.988426765605443E-4i           0.0015203131247762175+4.627027187562394E-6i
0.036                                             210.8482517142911                                 1.969847575490276-3.1325433642402867E-4i          1.9906638156810565-3.16564679841024E-4i           0.001522287778291976+4.471482967067152E-6i
0.036                                             223.34179607548148                                1.9661787872609904-3.314043876737739E-4i          1.9895256029288928-3.3533960481767796E-4i         0.0015244830477203048+4.315528137463469E-6i
0.036                                             236.5756294807401                                 1.9620650192399105-3.5055223949090526E-4i         1.9882487592878222-3.5523041356933156E-4i         0.0015269270062546864+4.159155923566589E-6i
0.036                                             250.5936168136362                                 1.9574526681727886-3.707423342199374E-4i          1.9868164344097303-3.763039066535388E-4i          0.0015296514820874252+4.002429402089011E-6i
0.036                                             265.4422221154942                                 1.9522817689916077-3.920189787092515E-4i          1.9852097387987295-3.986309977299868E-4i          0.001532692590610472+3.845469223575119E-6i
0.036                                             281.1706625951745                                 1.9464852645416841-4.144257948136311E-4i          1.983407499302376-4.222869764352042E-4i           0.0015360913446261447+3.688438912638963E-6i
0.036                                             297.8310717645051                                 1.9399881980564555-4.380050449864518E-4i          1.9813859859243934-4.4735180361925097E-4i         0.0015398943573582964+3.531528541598442E-6i
0.036                                             315.47867224009644                                1.9327068220159005-4.6279681836491063E-4i         1.9791186067945985-4.7391045583904974E-4i         0.001544154656215251+3.374937597943401E-6i
0.036                                             334.1719587843074                                 1.9245476168000535-4.888379964845697E-4i          1.976575567598842-5.020532748574632E-4i           0.0015489326297090968+3.21885783756011E-6i
0.036                                             353.97289219206897                                1.9154062130026381-5.161609905269627E-4i          1.9737234917199786-5.318763598023484E-4i          0.0015542971352240822+3.0634567244756997E-6i
0.036                                             374.94710466622786                                1.9051662115942576-5.447922153105486E-4i          1.9705249968810845-5.634820225731995E-4i          0.0015603268021514136+2.908861876284776E-6i
0.036                                             397.16411736214064                                1.8936978967771787-5.747501974429748E-4i          1.9669382235771393-5.969792693130973E-4i          0.0015671115732501756+2.755146778484938E-6i