% Model:              A1_caseD_air_slab_in_duct_3mic_2loads.mph
% Version:            COMSOL 6.2.0.290
% Date:               Apr 2 2026, 11:28
% Table:              Table 2 - Point Evaluation 1
% l_outlet (m)                                    freq (Hz)                                         Total acoustic pressure (Pa), Point: 2            Total acoustic pressure (Pa), Point: 3            Total acoustic pressure (Pa), Point: 7
0.011                                             49.99999999999999                                 1.99452836218472-0.04490550231937576i             1.996523908622824-0.044967086092266684i           1.9986127078057403-0.045079707707141155i
0.011                                             52.96268625886442                                 1.9939436002468043-0.04752252069984649i           1.9961818258837203-0.04759411438543242i           1.9985233371436133-0.04772151823482471i
0.011                                             56.10092271509817                                 1.993290506655454-0.050290898093746636i           1.99580090477156-0.050374233183200036i            1.9984257171268727-0.05051862010642336i
0.011                                             59.42511137185091                                 1.992560917738168-0.053219101701591234i           1.9953765594933326-0.05331621973400513i           1.9983189639039909-0.053480148013735726i
0.011                                             62.94627058970836                                 1.9917456892688603-0.05631602067501391i           1.9949036560262972-0.05642932981435225i           1.9982020930166124-0.05661577667703508i
0.011                                             66.6760716081662                                  1.9908345762140651-0.059590976638546095i          1.9943764436544997-0.059723318692143625i          1.9980740049065218-0.059935752827344965i
0.011                                             70.6268772311377                                  1.9898161001865142-0.06305373223080599i           1.9937884802964772-0.06320846205028594i           1.9979334706710106-0.0634509291799585i
0.011                                             74.81178280472167                                 1.9886774006599641-0.0667144967097073i            1.9931325483574933-0.06689557627502853i           1.997779115543775-0.06717280018221818i
0.011                                             79.24465962305565                                 1.987404069281328-0.07058392793022339i            1.9924005611920659-0.07079603784375536i           1.9976094010338696-0.07111353972129045i
0.011                                             83.94020090612803                                 1.985979962776571-0.07467312939031656i            1.9915834564863213-0.07492180100990423i           1.9974226029426352-0.07528604052174519i
0.011                                             88.91397050194612                                 1.984386996250088-0.07899364175269934i            1.9906710792633542-0.0792854137887841i            1.9972167890078767-0.07970395587330609i
0.011                                             94.18245447449                                    1.982604910701733-0.08355742682042737i            1.9896520492988687-0.08390003092182897i           1.9969897920723352-0.08438174311438196i
0.011                                             99.76311574844398                                 1.9806110146936926-0.08837684287951256i           1.9885136139395376-0.08877942356182508i           1.99673918102977-0.08933470950682644i
0.011                                             105.67445199183237                                1.9783798962158057-0.09346460930633574i           1.9872414835062453-0.09393798455318413i           1.9964622281013586-0.09457906043110242i
0.011                                             111.93605692841699                                1.9758831021736323-0.09883375816786925i           1.9858196479155197-0.09939072818637351i           1.996155872562858-0.10013195002970846i
0.011                                             118.56868528308274                                1.9730887812282623-0.10449757007744916i           1.9842301715338406-0.10515328304533252i           1.9958166795842982-0.1060115343966102i
0.011                                             125.59432157547896                                1.9699612873780146-0.11046949127896058i           1.9824529650052318-0.11124187651834588i           1.9954407946995876-0.11223702763221818i
0.011                                             133.0362529899404                                 1.966460739555976-0.11676302790925952i            1.980465530709904-0.11767330879722579i            1.9950238924780594-0.11882876065179884i
0.011                                             140.91914656322274                                1.96254253323675-0.12339161297827288i             1.9782426792630394-0.12446491410767173i           1.994561118886783-0.12580824292954582i
0.011                                             149.26913094589798                                1.9581567994815081-0.13036844049669952i           1.9757562138668814-0.13163450617888295i           1.994047026350695-0.13319822705953643i
0.011                                             158.11388300841895                                1.953247807166291-0.1377062604139195i             1.9729745795904767-0.13920030462978752i           1.9934755009351701-0.14102277620059095i
0.011                                             167.48271957891376                                1.9477533030100513-0.14541712647174113i           1.9698624733731045-0.1471808378863855i            1.9928396798879984-0.14930733400640422i
0.011                                             177.40669461678763                                1.9416037857624013-0.1535120881888753i            1.9663804120786137-0.1555948179252722i            1.9921318594098067-0.15807879703250918i
0.011                                             187.91870214422212                                1.9347217094337201-0.16200081628524812i           1.96248425409667-0.16446098086986954i             1.991343390722935-0.16736558916171357i
0.011                                             199.05358527674863                                1.9270206120996005-0.17089114929625024i           1.9581246711454705-0.1737978866295282i            1.990464563648673-0.17719773771693817i
0.011                                             210.8482517142911                                 1.918404166930125-0.18018854718693375i            1.9532465663595737-0.18362366963425225i           1.9894844762410895-0.18760695091489338i
0.011                                             223.34179607548148                                1.908765153213004-0.18989543538805528i            1.947788434913772-0.19395573120956927i            1.9883908889527437-0.19862669610343248i
0.011                                             236.5756294807401                                 1.8979843470231699-0.20001042049968012i           1.941681664066741-0.204810362923103i              1.987170062092137-0.2102922785287305i
0.011                                             250.5936168136362                                 1.8859293322945614-0.2105273555960263i            1.9348497689226-0.216202287932631i                1.9858065741356046-0.22264091980967163i
0.011                                             265.4422221154942                                 1.872453237010608-0.22143423052088942i            1.9272075620107023-0.2281441058848301i            1.9842831194344652-0.23571183582956912i
0.011                                             281.1706625951745                                 1.8573934018356502-0.23271185853960924i           1.9186602545415898-0.24064562392578703i           1.9825802823756669-0.2495463130436752i
0.011                                             297.8310717645051                                 1.8405699941670208-0.2443323273559175i            1.9091024892516786-0.25371305400515093i           1.980676285460369-0.26418778242351865i
0.011                                             315.47867224009644                                1.8217845867131472-0.2562571782617767i            1.8984173062488647-0.2673480532078843i            1.9785467079894936-0.2796818897253659i
0.011                                             334.1719587843074                                 1.8008187279976358-0.2684352731334402i            1.886475045743973-0.28154658026524765i            1.9761641715086444-0.29607656042410413i
0.011                                             353.97289219206897                                1.7774325433603568-0.2808003051231904i            1.873132195428315-0.29629753749289695i            1.9734979880934997-0.3134220573198093i
0.011                                             374.94710466622786                                1.7513634182155702-0.2932679050353215i            1.8582301943434447-0.31158116266612806i           1.9705137664708232-0.33177102789912255i
0.011                                             397.16411736214064                                1.722324833178462-0.30573229297754234i            1.8415942117546442-0.3273671308908487i            1.9671729710392194-0.35117853812908745i
0.011                                             420.6975708225973                                 1.6900054420108046-0.3180624234703863i            1.8230319271466962-0.3436123213057548i            1.9634324279725948-0.37170208823275636i
0.011                                             445.6254690668729                                 1.6540685102754236-0.3300975734990663i            1.8023323478001512-0.3602581984963524i            1.959243772227312-0.3934016050168336i
0.011                                             472.0304381429617                                 1.6141518655241274-0.34164232788031224i           1.7792647134348172-0.3772277537399664i            1.9545528288305118-0.41633940410947134i
0.011                                             499.99999999999994                                1.5698685496668243-0.3524609264528064i            1.7535775536883895-0.39442194705301004i           1.9492989213111165-0.4405801139915799i
0.011                                             529.6268625886448                                 1.5208084120357162-0.36227095523635827i           1.7249979846400345-0.4117155881452048i            1.9434140997749656-0.4661905520248918i
0.011                                             561.0092271509814                                 1.4665409381183327-0.370736391705114i             1.6932313557334573-0.4289525936273309i            1.9368222807491722-0.49323954074623133i
0.011                                             594.2511137185094                                 1.4066196746676844-0.37746005628176715i           1.6579613892829814-0.4459405602023151i            1.9294382906480936-0.521797650341981i
0.011                                             629.4627058970837                                 1.3405886867186378-0.38197558298298306i           1.6188509920291356-0.46244460085719746i           1.9211668045542662-0.5519368506039858i
0.011                                             666.7607160816619                                 1.2679915651319706-0.38373910748015505i           1.5755439628630714-0.478180405072721i             1.911901171981282-0.583730052421561i
0.011                                             706.2687723113777                                 1.1883835921971362-0.3821209881535646i            1.5276678735510023-0.4928065077821948i            1.9015221214990887-0.6172505151628261i
0.011                                             748.1178280472163                                 1.1013477631794355-0.3763980335618763i            1.474838460614563-0.5059157886862261i             1.889896336654883-0.652571091849501i
0.011                                             792.4465962305569                                 1.006515445740463-0.3657469182521188i             1.4166659363225096-0.5170262782659661i            1.876874896594754-0.6897632788006012i
0.011                                             839.4020090612802                                 0.9035925249842589-0.34923973917760437i           1.3527637043001002-0.5255714252531617i            1.8622915764658177-0.7288960301545462i
0.011                                             889.1397050194613                                 0.792391911123461-0.3258430088958758i             1.2827600482515105-0.5308900898535424i            1.8459610052562991-0.7700342903745715i
0.011                                             941.8245447449009                                 0.6728732529383796-0.2944218098513725i            1.2063134465009595-0.5322166765182356i            1.8276766825947393-0.8132371892127526i
0.011                                             997.6311574844393                                 0.545190565805919-0.25375135390642267i            1.1231322431325608-0.5286720201462884i            1.8072088616195876-0.8585558335717416i
0.011                                             1056.7445199183237                                0.40974819694840847-0.20253880327204984i          1.0329994668382887-0.5192559023783855i            1.7843023130237765-0.906030619141077i
0.011                                             1119.36056928417                                  0.2672650446995549-0.1394589002951221i            0.9358036132629387-0.502842413074097i             1.7586739964605262-0.9556879715662892i
0.011                                             1185.6868528308275                                0.11884613623626529-0.06320768945633118i          0.8315761695962489-0.4781797989586225i            1.730010680742602-1.0075364123384758i
0.011                                             1255.943215754791                                 -0.03394055679312026+0.027420674218788403i        0.7205365242658122-0.44389696707438997i           1.697966574878069-1.06156182881188i
0.011                                             1330.362529899404                                 -0.18898594529591323+0.1334284722442232i          0.6031446186538175-0.398519439363105i             1.6621610595144796-1.1177218113759761i
0.011                                             1409.1914656322274                                -0.3435665962365645+0.25547454743043646i          0.48016119338644825-0.34049827871256927i          1.6221766445961856-1.175938904895162i
0.011                                             1492.69130945898                                  -0.49428595563601857+0.39369465313898405i         0.3527146709508266-0.26825629755226404i           1.5775573261684201-1.2360926077148344i
0.011                                             1581.1388300841895                                -0.6370435569267917+0.5474781769041578i           0.22237249056270006-0.1802566551444468i           1.5278075755938276-1.298009942511199i
0.011                                             1674.8271957891395                                -0.7670505533833483+0.7152005650189893i           0.0912129444825159-0.07509963471687231i           1.4723922704757477-1.3614544229116121i
0.011                                             1774.0669461678763                                -0.8789151989642026+0.8939163943125589i           -0.03810887573343491+0.048346223730886234i        1.410737970461568-1.4261132538287393i
0.011                                             1879.1870214422213                                -0.9668270106874581+1.0790270186318538i           -0.1623106467703068+0.19077267020512526i          1.3422360542381564-1.4915826396725116i
0.011                                             1990.5358527674864                                -1.0248720477678228+1.2639500323470707i           -0.2774616025845507+0.35221524648269675i          1.2662483659590171-1.557351143664022i
0.011                                             2108.482517142911                                 -1.0475120008993637+1.4398362434720617i           -0.37900912046053364+0.531789887469239i           1.1821161663411992-1.6227811569423225i
0.011                                             2233.417960754817                                 -1.0302535213060284+1.5954036451234073i           -0.46187702553819815+0.7273860436594404i          1.0891733363467144-1.687088714455293i
0.011                                             2365.756294807401                                 -0.9705171837222878+1.7169859298922434i           -0.5206646575708677+0.9353283580743191i           0.986764921907676-1.749322153627279i
0.011                                             2505.936168136362                                 -0.8686824094702517+1.7889219682172492i           -0.5499793387224648+1.1500318420473084i           0.8742722065527392-1.808340467650981i
0.011                                             2654.422221154942                                 -0.7292300699084018+1.794435177446509i            -0.5449348089661068+1.363693454104132i            0.7511455101027125-1.862792666023694i
0.011                                             2811.706625951745                                 -0.5618244187170591+1.7171553573805047i           -0.5018412783068049+1.5660860684921782i           0.6169457752292214-1.9111000104669642i
0.011                                             2978.3107176450544                                -0.3820715134392019+1.5434014694448714i           -0.41909472547803445+1.7445476843313446i          0.47139564913248544-1.9514436024273631i
0.011                                             3154.7867224009647                                -0.21157376474842068+1.2652471736910123i          -0.29823894876893275+1.8842855911745588i          0.3144401307509207-1.9817603706643208i
0.011                                             3341.719587843074                                 -0.07679847050668855+0.884204944632898i           -0.14511891218880937+1.9691346478794145i          0.14631590647342985-1.9997509036333727i
0.011                                             3539.72892192069                                  -0.006245411852028094+0.4150705133743964i         0.029034316351461798+1.9829087541192134i          -0.03237271461850349-2.002902612861091i
0.011                                             3749.4710466622787                                -0.02551562221615597-0.11092528762186231i         0.20684519339081253+1.9114480313801532i           -0.22057468067970631-1.9885312256439773i
0.011                                             3971.6411736214104                                -0.15025053411506262-0.6449451097539856i          0.364725816493642+1.7453709242824056i             -0.4167144945733257-1.9538424746949807i
0.011                                             4206.975708225973                                 -0.3776184629116064-1.1229736836235293i           0.4739481302587058+1.4833713062245086i            -0.6186212657377914-1.8960140518890143i
0.011                                             4456.2546906687285                                -0.6780950071742605-1.473448241444136i            0.5033260135873772+1.135646294082415i             -0.8234697462061772-1.8122954340125483i
0.011                                             4720.304381429617                                 -0.9905738241364933-1.6309925649901271i           0.4238686917997217+0.7267142750734396i            -1.0277369407134227-1.7001201097063914i
0.011                                             4999.999999999999                                 -1.2249396936311703-1.5554468603930651i           0.2154583415321617+0.2965380029695227i            -1.2271732640329536-1.5572215958939715i
0.011                                             5296.268625886442                                 -1.276378666018249-1.252549731151457i             -0.12496104519597705-0.1013872214925351i          -1.4167775766929422-1.3817440734042548i
0.011                                             5610.0922715098195                                -1.0538649560108357-0.7890743477180685i           -0.5750253553050994-0.4063227329792597i           -1.5907508468483864-1.1723471484200236i
0.011                                             5942.5111371850935                                -0.5204951641673837-0.29220511843134217i          -1.0807804147341726-0.5618514599955468i           -1.7423921513113207-0.9283308838663221i
0.036                                             49.99999999999999                                 1.98954519389056-0.09035849914148099i             1.9923736579081441-0.09050369010986946i           1.9970954742579807-0.09083829976704932i
0.036                                             52.96268625886442                                 1.9883552845872947-0.09563200312554342i           1.9915274534541134-0.09580291429308421i           1.9968207843962367-0.09618858493348291i
0.036                                             56.10092271509817                                 1.9870237216248132-0.101207500199269i             1.990581261968577-0.10140881257489434i            1.996515208988953-0.10185407675228865i
0.036                                             59.42511137185091                                 1.9855335042135125-0.10710112704938213i           1.9895231067376078-0.10733838451052179i           1.9961751005816974-0.10785327418510855i
0.036                                             62.94627058970836                                 1.9838655985569824-0.1133296632637359i            1.9883395768094563-0.11360943242793613i           1.9957963744511154-0.11420574990055543i
0.036                                             66.6760716081662                                  1.981998694623498-0.11991051128066846i            1.9870156532961332-0.1202405710112865i            1.9953744523195647-0.12093220960712298i
0.036                                             70.6268772311377                                  1.9799089386777768-0.12686166487703215i           1.9855345190328997-0.12725123089470083i           1.9949042027396549-0.12805455460392176i
0.036                                             74.81178280472167                                 1.9775696340894666-0.13420166256843813i           1.9838773447957474-0.13466165363484062i           1.994379872694632-0.13559594661657315i
0.036                                             79.24465962305565                                 1.974950909843192-0.14194952328133345i            1.9820230522382105-0.1424928765969604i            1.9937950120598147-0.14358087547152007i
0.036                                             83.94020090612803                                 1.9720193505971981-0.1501246596091695i            1.9799480481146834-0.15076670444259063i           1.993142387014695-0.15203522867393118i
0.036                                             88.91397050194612                                 1.9687375878428128-0.15874676491612225i           1.9776259300959536-0.1595056651036525i            1.9924138843847972-0.16098636359672433i
0.036                                             94.18245447449                                    1.9650638471820256-0.16783566848713455i           1.9750271598992761-0.16873294633673638i           1.9916004043175206-0.170463181696759i
0.036                                             99.76311574844398                                 1.9609514478697798-0.1774111523566898i            1.9721187005374028-0.1784723087091765i            1.990691739843084-0.1804962045346066i
0.036                                             105.67445199183237                                1.956348251177045-0.18749272244063953i            1.968863614806549-0.1887479702327887i             1.9896764421809727-0.19111765143708043i
0.036                                             111.93605692841699                                1.9511960538214201-0.19809932505571035i           1.965220621664555-0.19958445674747768i            1.9885416701176062-0.20236151834105573i
0.036                                             118.56868528308274                                1.9454299224047291-0.20924899851110432i           1.9611436066247696-0.21100641124817346i           1.9872730211427776-0.21426365740242362i
0.036                                             125.59432157547896                                1.938977465862464-0.22095844742209228i            1.9565810830249708-0.22303835386443105i           1.9858543425108173-0.22686185656209265i
0.036                                             133.0362529899404                                 1.9317580428711387-0.23324252562403747i           1.9514756005399834-0.23570438306130073i           1.9842675195762083-0.24019591840514526i
0.036                                             140.91914656322274                                1.9236819022279124-0.2461136106895152i            1.9457630977541878-0.24902780644324699i           1.9824922386367667-0.2543077369185296i
0.036                                             149.26913094589798                                1.9146492552208405-0.25958085054540725i           1.939372195825673-0.2630306878069807i             1.980505721013184-0.26924137071239773i
0.036                                             158.11388300841895                                1.9045492813995946-0.2736492595177513i            1.932223431595607-0.27773329474440106i            1.978282425368683-0.285043110852309i
0.036                                             167.48271957891376                                1.8932590709324-0.28831863746386127i              1.924228428903157-0.29315342830228075i            1.975793714296591-0.30176154085157936i
0.036                                             177.40669461678763                                1.8806425104975792-0.3035822818735276i            1.915289008853786-0.30930561332389384i            1.9730074813213794-0.31944758597582557i
0.036                                             187.91870214422212                                1.8665491238249836-0.3194254584239329i            1.9052962416923345-0.3262001245725447i            1.9698877339196725-0.3381545482641429i
0.036                                             199.05358527674863                                1.8508128839961964-0.3358235910948263i            1.894129446071637-0.3438418201583103i             1.9663941281170094-0.357938123183918i
0.036                                             210.8482517142911                                 1.8332510217958762-0.3527401281206493i            1.881655145091513-0.36222874958391776i            1.9624814496697736-0.37885639300475926i
0.036                                             223.34179607548148                                1.8136628637286374-0.3701240350691611i            1.8677259933209236-0.38135049906131213i           1.9580990363703745-0.4009697909274117i
0.036                                             236.5756294807401                                 1.7918287455859752-0.38790686191965684i           1.8521796957459167-0.40118623219011224i           1.9531901359863952-0.4243410292472011i
0.036                                             250.5936168136362                                 1.7675090618055855-0.4059993265523633i            1.834837947133797-0.42170237874387395i            1.947691193349561-0.4490349833139951i
0.036                                             265.4422221154942                                 1.7404435299013088-0.4242873539012147i            1.8155054310474652-0.442849919206055i             1.9415310600544782-0.47511852161166296i
0.036                                             281.1706625951745                                 1.7103507720489617-0.4426275084758051i            1.7939689305686046-0.4645612076783373i            1.9346301196127451-0.5026602704536061i
0.036                                             297.8310717645051                                 1.6769283439241114-0.46084175889777207i           1.7699966188872605-0.486746271106303i             1.9268993202808908-0.5317302993681956i
0.036                                             315.47867224009644                                1.6398533755924858-0.4787115184128938i            1.7433376186274954-0.5092885195216923i            1.9182391078974264-0.5623997106915514i
0.036                                             334.1719587843074                                 1.5987840300830674-0.4959709160682984i            1.713721943411694-0.5320398001551325i             1.9085382504769675-0.5947401132412831i
0.036                                             353.97289219206897                                1.5533620346596415-0.5122992729506278i            1.680860966246932-0.5548147300656638i             1.8976725468672468-0.628822956262465i
0.036                                             374.94710466622786                                1.5032165970633846-0.5273127887018232i            1.6444485964186677-0.5773842477491835i            1.8855034121974856-0.6647186947685644i
0.036                                             397.16411736214064                                1.4479700850912989-0.5405554907653516i            1.6041633914110713-0.5994683372372513i            1.871876334219323-0.7024957519996267i
0.036                                             420.6975708225973                                 1.3872459218696829-0.5514895670742844i            1.5596718832699128-0.620727900438878i             1.8566191967443346-0.7422192379426098i
0.036                                             445.6254690668729                                 1.3206792294248315-0.5594852996264638i            1.5106334603514195-0.640755789317383i             1.8395404696346718-0.7839493753554531i