% Model:              A1_caseA_silicone_slab_filter_in_duct_3mic_2loads.mph
% Version:            COMSOL 6.2.0.290
% Date:               Apr 1 2026, 12:50
% Table:              Table 1 - Point Evaluation 1
% l_outlet (m)                                    freq (Hz)                                         Total acoustic pressure (Pa), Point: 2            Total acoustic pressure (Pa), Point: 3            Total acoustic pressure (Pa), Point: 7
0.011                                             49.99999999999999                                 1.9956214130859684-0.03432381141204413i           1.997423063279606-0.03436715856089351i            2.0025810661198475-0.035817991134582346i
0.011                                             52.96268625886442                                 1.995146946395259-0.036333291813441825i           1.9971679750900924-0.03638365521868448i           2.002939090337724-0.03795423055887398i
0.011                                             56.10092271509817                                 1.9946165283557376-0.03846096435736161i           1.996883661489119-0.0385195588444562i             2.003340442034623-0.04022125040545866i
0.011                                             59.42511137185091                                 1.9940233635437496-0.04071375308912945i           1.9965665834930257-0.04078201315562961i           2.003790242304548-0.042627370920793696i
0.011                                             62.94627058970836                                 1.9933598271661253-0.04309898128435488i           1.9962127694705487-0.043178601780422314i          2.0042942446320353-0.0451814924333383i
0.011                                             66.6760716081662                                  1.9926173618088847-0.04562439377689009i           1.9958177602073446-0.04571737824180241i           2.0048589157514987-0.04789314919999343i
0.011                                             70.6268772311377                                  1.991786361120154-0.04829818016598179i            1.995376546780749-0.048406898286308404i           2.005491526552416-0.05077257070339571i
0.011                                             74.81178280472167                                 1.9908560405852422-0.051128999164522355i          1.9948835021202813-0.051256255105998655i          2.0062002560197825-0.05383075184705098i
0.011                                             79.24465962305565                                 1.9898142892395614-0.054126003575800385i          1.9943323008903782-0.054275117283642066i          2.0069943053207555-0.05707953291322804i
0.011                                             83.94020090612803                                 1.9886475042491867-0.057298866150037014i          1.993715830522121-0.05747377012518277i            2.007884027725877-0.06053169113848452i
0.011                                             88.91397050194612                                 1.987340403693076-0.06065780618079952i            1.9930260897301808-0.06086316073606388i           2.008881074065783-0.06420104567445276i
0.011                                             94.18245447449                                    1.9858758149126687-0.0642136164522795i            1.992254072991598-0.06445494704948794i            2.0099985561517153-0.06810257783770302i
0.011                                             99.76311574844398                                 1.9842344353918306-0.0679776906891237i            1.9913896392112738-0.0682615516810888i            2.011251231054064-0.07225256960146104i
0.011                                             105.67445199183237                                1.9823945628633337-0.07196205096967077i           1.99042136266115-0.07229622094307109i             2.0126557098025817-0.0766687632294222i
0.011                                             111.93605692841699                                1.9803317893304544-0.07617937495730152i           1.9893363624507696-0.07657308993127818i           2.014230693252594-0.08137054617259516i
0.011                                             118.56868528308274                                1.978018654705641-0.08064302243870301i            1.988120107975673-0.08110725445966727i            2.015997240186856-0.08637916601760658i
0.011                                             125.59432157547896                                1.9754242529264046-0.08536706021709309i           1.9867561951392827-0.08591485045398453i           2.0179790714218844-0.0917179811274892i
0.011                                             133.0362529899404                                 1.9725137858074995-0.09036628524341554i           1.985226090792508-0.0910131426039968i             2.0202029180120014-0.09741275511851837i
0.011                                             140.91914656322274                                1.9692480541011423-0.09565624406090796i           1.9835088372457046-0.0964206226873986i            2.0226989179155317-0.10349200352250515i
0.011                                             149.26913094589798                                1.9655828779341689-0.10125324760580962i           1.9815807117046467-0.10215711948950429i           2.0255010708830907-0.10998740457883303i
0.011                                             158.11388300841895                                1.9614684345084694-0.10717437907743842i           1.9794148314490692-0.10824392157823i              2.0286477600853745-0.1169342880222843i
0.011                                             167.48271957891376                                1.9568484998662767-0.11343749221722146i           1.9769806947968833-0.11470391466437102i           2.0321823516853152-0.12437221953043505i
0.011                                             177.40669461678763                                1.9516595793973748-0.12006119657888567i           1.9742436460740893-0.12156173558463321i           2.036153886023484-0.13234570307983975i
0.011                                             187.91870214422212                                1.9458299069357503-0.12706482470076497i           1.9711642482735259-0.12884394462046864i           2.0406178747637327-0.14090502864970103i
0.011                                             199.05358527674863                                1.939278290602313-0.13446837506661719i            1.967697545693433-0.13657921857028013i            2.0456372235811684-0.1501073006600066i
0.011                                             210.8482517142911                                 1.9319127765406405-0.14229242199094133i           1.9637921920675174-0.14479856645360709i           2.0512833013739002-0.16001769149867065i
0.011                                             223.34179607548148                                1.9236290973134196-0.1505579810693202i            1.9593894154882066-0.15353557010219077i           2.0576371831317086-0.17071097755087405i
0.011                                             236.5756294807401                                 1.914308862456214-0.15928631431802157i            1.9544217821527985-0.16282665110652456i           2.0647910973635537-0.18227343134501162i
0.011                                             250.5936168136362                                 1.90381743935049-0.16849865360300653i             1.9488117113940984-0.17271136496679237i           2.0728501159170385-0.19480516584039634i
0.011                                             265.4422221154942                                 1.892001459413462-0.1782158127341175i             1.9424696806341168-0.1832327215507875i            2.0819341310927397-0.2084230565816054i
0.011                                             281.1706625951745                                 1.8786858674004074-0.1884576472153606i            1.935292040400681-0.19443752822191865i            2.0921801730609446-0.22326440811656773i
0.011                                             297.8310717645051                                 1.8636704095339236-0.19924230403996496i           1.9271583350927117-0.20637674701169667i           2.1037451297004184-0.2394915864812527i
0.011                                             315.47867224009644                                1.8467254265597697-0.21058517996797818i           1.9179279915232639-0.21910584901094834i           2.11680894001766-0.2572979163369311i
0.011                                             334.1719587843074                                 1.8275867790512772-0.2224974718244428i            1.9074361917585676-0.2326851358078394i            2.131578340430964-0.2769152487800443i
0.011                                             353.97289219206897                                1.8059496794087067-0.2349841501034659i            1.8954886827990767-0.24717997528254093i           2.148291246176077-0.2986237568761405i
0.011                                             374.94710466622786                                1.781461135247063-0.24804110930428738i            1.881855187756444-0.2626608626348731i             2.1672218442309568-0.3227647319443119i
0.011                                             397.16411736214064                                1.7537106139326588-0.26165112990096917i           1.8662609585275352-0.2792031572113095i            2.188686446767291-0.34975746494848287i
0.011                                             420.6975708225973                                 1.7222184102412166-0.27577810397748487i           1.8483758331838875-0.2968862453129293i            2.213050085505854-0.38012175127318487i
0.011                                             445.6254690668729                                 1.686421028027565-0.2903586912700181i             1.8277999088397625-0.31579171171507703i           2.240733679415057-0.41450822799941833i
0.011                                             472.0304381429617                                 1.6456526595231014-0.30529011907695425i           1.8040445766642312-0.3359998186847799i            2.272221306865185-0.4537397543707845i
0.011                                             499.99999999999994                                1.5991215528178715-0.32041210859495217i           1.7765071395111405-0.35758310464905946i           2.3080665197757004-0.4988685596797621i
0.011                                             529.6268625886448                                 1.5458797010987082-0.3354797114109281i            1.744436472146294-0.38059506779089564i            2.3488954812492135-0.5512561930949444i
0.011                                             561.0092271509814                                 1.4847839079565313-0.35012183938319813i           1.7068860943290247-0.4050504015413435i            2.395402459689055-0.6126868647082033i
0.011                                             594.2511137185094                                 1.4144460334792461-0.36377687568547545i           1.6626495032972088-0.43089055117515324i           2.4483288139125845-0.6855302577436148i
0.011                                             629.4627058970837                                 1.3331705472050375-0.37559089735302886i           1.6101706047907605-0.45792341206654447i           2.508407905880015-0.7729783343660088i
0.011                                             666.7607160816619                                 1.23887958805869-0.384253797625517i               1.5474198189095503-0.48571674455323066i           2.576240932179166-0.8793933693596636i
0.011                                             706.2687723113777                                 1.1290326290893966-0.3877305469001752i            1.4717251219313914-0.513407315651187i             2.6520331161709514-1.01082249855951i
0.011                                             748.1178280472163                                 1.000567461237141-0.38281316541997823i            1.379551169578597-0.5393540120918108i             2.7350461582641636-1.1757557933716258i
0.011                                             792.4465962305569                                 0.8499417815355723-0.3643651739786435i            1.266242100226767-0.5604982217840481i             2.8224691146392655-1.3862167315709748i
0.011                                             839.4020090612802                                 0.673491650953311-0.3240478025285427i             1.1258245284624244-0.5711729439618874i            2.9070893356632532-1.6592200898065226i
0.011                                             889.1397050194613                                 0.46867133663616833-0.24823045881965974i          0.9512208408793997-0.5608929347555286i            2.9724980379661203-2.018320565144491i
0.011                                             941.8245447449009                                 0.23758336777235914-0.11487411100457114i          0.7359542474742199-0.5103920253189431i            2.983387676767163-2.4938256529216085i
0.011                                             997.6311574844393                                 -0.0039648036274836035+0.10985621121198008i       0.4803237126511566-0.38522092396354396i           2.8668869470682523-3.1168949443125906i
0.011                                             1056.7445199183237                                -0.20538337906999565+0.471169119765976i           0.20912321482735474-0.12747123151805323i          2.4789206467077083-3.8966949179421144i
0.011                                             1119.36056928417                                  -0.2241060805940648+1.0218311477820052i           0.022382604411470802+0.36646704120939866i         1.493973013317573-4.785493481465875i
0.011                                             1185.6868528308275                                0.006839493377400411-0.001790232629989305i        0.7041273987374419-0.4695744403075244i            1.4651291924645173-0.9827436834403874i
0.011                                             1255.943215754791                                 0.047392061268815504+1.6162279217841211i          0.08826393049847912+1.0159486043895447i           0.0445713991152544-4.526846604896397i
0.011                                             1330.362529899404                                 0.5947971373334842+1.7682058781767025i            0.5305608561709981+1.4129822629464606i            -1.2035453416005044-3.982427453719295i
0.011                                             1409.1914656322274                                0.9926436728970665+1.6051653921036673i            0.976492850520559+1.4927427309074057i             -1.8075821879800895-3.091255284508676i
0.011                                             1492.69130945898                                  1.1843665188272148+1.3197980896706805i            1.3054867206720584+1.3954032796150266i            -1.9568811408996147-2.2689921348256883i
0.011                                             1581.1388300841895                                1.2098000330095304+1.0272728947508425i            1.505750418949957+1.2318246526254297i             -1.8716202612497055-1.6394358085624472i
0.011                                             1674.8271957891395                                1.125990889018777+0.7710220728933777i             1.6071906003129217+1.0600368540001204i            -1.696267194289512-1.1899928171560716i
0.011                                             1774.0669461678763                                0.9743914163590015+0.5584720488499622i            1.6406453178984686+0.9021947966674188i            -1.501883319468511-0.8750608267983566i
0.011                                             1879.1870214422213                                0.7799487177966156+0.3848346075352763i            1.6278739736556307+0.7638142978304236i            -1.317923472324437-0.6535268372955262i
0.011                                             1990.5358527674864                                0.556950109324872+0.2429855746211997i             1.5824650824016502+0.6441349212410256i            -1.1544446393850887-0.49565274057895503i
0.011                                             2108.482517142911                                 0.3137996481500449+0.12661670045599663i           1.5124612495104646+0.5405126551760329i            -1.0134010175791746-0.38133882610458414i
0.011                                             2233.417960754817                                 0.055917222723177694+0.030923576712259735i        1.422390668022655+0.45002496141781867i            -0.8938752801641111-0.29724076059264654i
0.011                                             2365.756294807401                                 -0.21274964127709908-0.04741381504385854i         1.3144403709052714+0.3698677929288967i            -0.7947363437605236-0.2345061638506877i
0.011                                             2505.936168136362                                 -0.4895714904273972-0.11016839266469175i          1.1885545749904658+0.29691026676589083i           -0.7176051820396444-0.18733522209481565i
0.011                                             2654.422221154942                                 -0.7793271103788963-0.15517999084971815i          1.0371843227324398+0.22331455234747977i           -0.6840192466632756-0.152686194516627i
0.011                                             2811.706625951745                                 -0.8239639147589237-0.25024713500221807i          1.0492960322602125+0.3277720140847392i            -0.08102424042070076-0.033340968713728145i
0.011                                             2978.3107176450544                                -1.2482172284153241-0.2388148992980937i           0.7613702806405446+0.1529863251173747i            -0.41814558688320347-0.0881223449136328i
0.011                                             3154.7867224009647                                -1.5052267087386613-0.2386857790344368i           0.555342949532776+0.09353072735803232i            -0.39201688014583297-0.06840931478036727i
0.011                                             3341.719587843074                                 -1.8687285408946241+0.70251435055207i             -0.5839337523230249+0.22228658056288092i          -0.036738823835698126+0.010599347073088487i
0.011                                             3539.72892192069                                  -1.8111954148072362-0.31796692360875306i          0.2450822843601885+0.046803242630875284i          -0.3546387513124166-0.06635109102547622i
0.011                                             3749.4710466622787                                -1.9349623216833507-0.2896052135115122i           0.006744869312425794+0.004144346149006172i        -0.3233981226935982-0.05164834110019093i
0.011                                             3971.6411736214104                                -1.980264225609655-0.26009625504731526i           -0.2301699465970622-0.02748455670859044i          -0.3128163132287719-0.04366829975716266i
0.011                                             4206.975708225973                                 -1.9424502528813021-0.24061462120669733i          -0.45537034552103245-0.05396372317085304i         -0.25711975003190035-0.03398068597098237i
0.011                                             4456.2546906687285                                -1.8133524602461017-0.20104510690415722i          -0.6974549686425385-0.07499159005772532i          -0.2472619916411117-0.029117418272442273i
0.011                                             4720.304381429617                                 -1.5804111079918757-0.15144117534983534i          -0.9446207408745114-0.0880679607877211i           -0.24083319518116222-0.024408094299626162i
0.011                                             4999.999999999999                                 -1.2610678148484034-0.11942863344253203i          -1.1628627068487025-0.10761744767424554i          -0.2165895520857756-0.021552174722366143i
0.011                                             5296.268625886442                                 -0.831617486539525-0.06950959743576741i           -1.3886810413477872-0.11267908727347302i          -0.21162042125141656-0.018362033152179116i
0.011                                             5610.0922715098195                                -0.32953692345355057-0.02628204058842233i         -1.5870046923061891-0.11956989025390562i          -0.1993997483934342-0.01598439742723181i
0.011                                             5942.5111371850935                                0.23526429992252537+0.014172873441634726i         -1.7626431960894409-0.11459000824789103i          -0.19696520189640607-0.013545104353966038i
0.036                                             49.99999999999999                                 1.9909887156081927-0.08009913005111852i           1.9936291252199019-0.08021961450960254i           2.006017855596262-0.08387227157291789i
0.036                                             52.96268625886442                                 1.989944706939188-0.08482312140278297i            1.992906981602178-0.08496524435803988i            2.0067711784414444-0.08895193653639663i
0.036                                             56.10092271509817                                 1.9887741460163795-0.08982638349772162i           1.9920975504919745-0.08999414341104013i           2.0076124314541755-0.09435208709561245i
0.036                                             59.42511137185091                                 1.9874613612450525-0.09512538400603678i           1.991189954298721-0.0953235323095181i             2.0085517838792546-0.10009475297984247i
0.036                                             62.94627058970836                                 1.985988706529718-0.1007375467455667i             1.990171926942502-0.10097173173223267i            2.009600636409193-0.10620379458899769i
0.036                                             66.6760716081662                                  1.9843363014855628-0.10668130332231063i           1.989029625833328-0.1069582420094309i             2.010771774886088-0.11270511977946526i
0.036                                             70.6268772311377                                  1.9824817374062011-0.11297614652614944i           1.9877474184158952-0.11330383007531918i           2.012079543806983-0.11962693712952782i
0.036                                             74.81178280472167                                 1.9803997404097315-0.11964268460510176i           1.9863076357747964-0.12003062404165317i           2.013540038193588-0.1270000519348144i
0.036                                             79.24465962305565                                 1.9780617863572754-0.12670269578661647i           1.9846902890983373-0.1271622161764887i            2.015171316661796-0.13485821290222197i
0.036                                             83.94020090612803                                 1.9754356585044417-0.134179181855741i             1.982872741296114-0.13472377482827216i            2.0169936362862626-0.14323851882806773i
0.036                                             88.91397050194612                                 1.9724849408499163-0.14209641993266478i           1.9808293282402403-0.1427421665635826i            2.019029713601505-0.15218189730350357i
0.036                                             94.18245447449                                    1.9691684317553821-0.1504800094760324i            1.9785309158362063-0.15124608815498894i           2.0213050094699945-0.16173366839999487i
0.036                                             99.76311574844398                                 1.965439469617056-0.15935691303991759i            1.9759443865480215-0.16026621017901005i           2.0238480453417944-0.1719442118539359i
0.036                                             105.67445199183237                                1.9612451496662655-0.16875548596745624i           1.973032036429722-0.1698353314027853i             2.0266907481730825-0.1828697579649794i
0.036                                             111.93605692841699                                1.9565254154363818-0.17870549066012034i           1.9697508683727774-0.17998854457813082i           2.0298688290703786-0.1945733295839504i
0.036                                             118.56868528308274                                1.951211998824085-0.18923808783428187i            1.9660517577910275-0.19076341226999188i           2.033422194574691-0.20712586788038626i
0.036                                             125.59432157547896                                1.9452271807377004-0.20038579539347492i           1.961878465149494-0.20220015115221895i            2.0373953917658914-0.220607583991182i
0.036                                             133.0362529899404                                 1.938482335231986-0.2121824011022277i             1.9571664606479036-0.21434182079089606i           2.041838083728858-0.23510958872097779i
0.036                                             140.91914656322274                                1.9308762137340998-0.22466281082942263i           1.9518415199799932-0.2272345111499151i            2.0468055508073744-0.25073586718074686i
0.036                                             149.26913094589798                                1.9222929123565222-0.2378628057142597i            1.94581803609275-0.2409275180337937i              2.052359204580902-0.2676056818981969i
0.036                                             158.11388300841895                                1.9125994551565817-0.25181867255594925i           1.9389969810434486-0.2554734910841161i            2.0585670968695697-0.2858565123314732i
0.036                                             167.48271957891376                                1.9016429056170658-0.2665666558571607i            1.931263430111918-0.27092852888496594i            2.065504389937241-0.30564766730372916i
0.036                                             177.40669461678763                                1.8892468994439757-0.28214216007655496i           1.9224835389110349-0.28735218353788616i           2.073253737862568-0.3271647469654256i
0.036                                             187.91870214422212                                1.8752074616365757-0.29857859969079903i           1.9125008303349658-0.3048073162539514i            2.081905497690599-0.35062518094140877i
0.036                                             199.05358527674863                                1.8592879374115872-0.31590575201119714i           1.9011316087575152-0.3233597163544705i            2.0915576470950383-0.3762851372038968i
0.036                                             210.8482517142911                                 1.8412128204376628-0.3341474036809049i            1.8881592630071709-0.34307735002962914i           2.1023152165563643-0.40444818363164503i
0.036                                             223.34179607548148                                1.8206602082548-0.3533179896380742i               1.8733271505286304-0.36402903710318507i           2.1142889434310637-0.4354762011391658i
0.036                                             236.5756294807401                                 1.797252546362805-0.373417785229091i              1.8563296619265313-0.3862822480241112i            2.127592696258739-0.46980319870503023i
0.036                                             250.5936168136362                                 1.7705452441722207-0.39442600766573954i           1.8368009472250522-0.409899551534484i             2.1423389736784366-0.5079528790550405i
0.036                                             265.4422221154942                                 1.7400126609242106-0.41629087512777424i           1.8143006366769834-0.4349329919206036i            2.1586314010167613-0.5505610568724826i
0.036                                             281.1706625951745                                 1.7050308807269423-0.43891520602517176i           1.7882957080153332-0.46141528205380394i           2.1765525470367355-0.59840434546947i
0.036                                             297.8310717645051                                 1.6648566590120746-0.46213543193625434i           1.7581374502800158-0.4893460810879534i            2.1961444340112055-0.6524368946373188i
0.036                                             315.47867224009644                                1.6186020015772928-0.48569081446833234i           1.7230322852416802-0.5186706500394369i            2.217377602195118-0.7138373387272027i
0.036                                             334.1719587843074                                 1.5652041923257427-0.5091779986702443i            1.6820051250728247-0.5492466294650681i            2.2401021722425987-0.7840683699943418i
0.036                                             353.97289219206897                                1.5033920484983976-0.5319835134095876i            1.6338541927347279-0.580792225773765i             2.263970481574367-0.8649511685274672i
0.036                                             374.94710466622786                                1.4316514268481773-0.553183046263374i             1.5770973107042157-0.6128052151011697i            2.2883147124000227-0.9587555522470506i
0.036                                             397.16411736214064                                1.3481978869712234-0.5713908374356543i            1.5099126670769922-0.6444361643301414i            2.311953274677909-1.0683025102558876i
0.036                                             420.6975708225973                                 1.2509746069591579-0.5845351605635869i            1.4300843065718507-0.6742903194315085i            2.3328851001107394-1.1970652007537912i
0.036                                             445.6254690668729                                 1.137714222731325-0.5895276283940761i             1.334978804608681-0.7001204274822959i             2.3478105882355993-1.3492301454321303i