% Model:              B0_Matrix_2D_changement_section_with_losses.mph
% Version:            COMSOL 6.2.0.290
% Date:               Mar 28 2026, 15:50
% Table:              Table 1 - Global Evaluation 1
% freq (Hz)                                       S11 (1)                                           S21 (1)                                           S12 (1)                                           S22 (1)
50                                                -0.06177217380750269-0.2198346050537783i          0.9362907226620036-0.23559369392202045i           0.9362907162497227-0.23559370148948694i           -0.0637843878462591-0.21925887068284913i
60                                                -0.084111211168075-0.2564180700263908i            0.9134425794886147-0.2751523529631723i            0.9134425675130162-0.27515236349606725i           -0.08692644319699983-0.2554772533566096i
70                                                -0.10890560742145594-0.29000813034139705i         0.8880858458837029-0.31165499574759714i           0.8880858263750769-0.3116550088897261i            -0.11261830563394905-0.28858672360316406i
80                                                -0.135696953851835-0.3204760707756111i            0.8606873570223758-0.34497063855635723i           0.8606873280537859-0.34497065350235045i           -0.14038283717365538-0.3184516177481328i
90                                                -0.16403819188080881-0.34776542442641206i         0.8317027306204123-0.37504169909011925i           0.8317026904715482-0.3750417146783687i            -0.1697544876824146-0.3450117725459084i
100                                               -0.19350503551819043-0.37188446090602834i         0.8015646062949012-0.40187654006466794i           0.8015645534703504-0.4018765548376148i            -0.20029125998972425-0.3682746945116622i
110                                               -0.22370475063782413-0.3928972981240463i          0.7706735954204316-0.42554049249206133i           0.7706735287283527-0.42554050477773336i           -0.2315839173090104-0.3883062770788247i
120                                               -0.2542824182658922-0.41091416428173033i          0.7393918238664972-0.4461459554828013i            0.7393917424221791-0.44614596346999114i           -0.26326255433694856-0.40522062470381015i
130                                               -0.28492475339410284-0.4260813923265306i          0.7080389914567337-0.46384219715689884i           0.7080388946965078-0.4638421989842673i            -0.2950006064648903-0.4191695981057396i
140                                               -0.31536167146898014-0.43857171469796163i         0.6768907459147131-0.4788054510215655i            0.6768906335571887-0.478805444823642i             -0.3265165010289736-0.43033267588412943i
150                                               -0.3453659285138097-0.44857532458002897i          0.6461790333017761-0.4912297905444684i            0.6461789053500875-0.4912297745277706i            -0.35757329374148084-0.4389076195317173i
160                                               -0.37475124209520166-0.4562920228181257i          0.6160940055139278-0.5013191106830078i            0.6160938621844595-0.5013190831385181i            -0.3879767176425103-0.4451022740112926i
170                                               -0.403369320374512-0.46192461829613085i           0.5867870462717735-0.5092803888296782i            0.586786887993631-0.5092803481661835i             -0.41757209138180973-0.4491276782018385i
180                                               -0.43110619799683947-0.4656736204717634i          0.5583745070406615-0.5153182650585004i            0.5583743343821583-0.5153182098320093i            -0.44624050379242436-0.45119252461470805i
190                                               -0.4578782198968852-0.46773316653129143i          0.5309418037978433-0.5196308830006863i            0.5309416174693812-0.519630811907306i             -0.4738946305487264-0.4514989077059416i
200                                               -0.4836279436064005-0.4682880630140168i           0.5045475978906665-0.5224068686560364i            0.5045473986902909-0.5224067805476929i            -0.5004744655304197-0.4502392351120946i
210                                               -0.5083201600563024-0.46751178839864815i          0.47922785652062827-0.5238232903719724i           0.4792276453041295-0.5238231842360592i            -0.5259431752632664-0.44759414131431197i
220                                               -0.5319381688314213-0.4655652919986035i           0.4549996538780453-0.524044431853528i             0.4549994315617598-0.524044306826813i             -0.5502832182862796-0.4437312319877442i
230                                               -0.5544803905004919-0.4625964289753074i           0.4318646284722627-0.5232212146415048i            0.4318643959790747-0.5232210699938108i            -0.5734928156890016-0.43880449176887804i
240                                               -0.575957357131965-0.45873988517534653i           0.40981205462356995-0.5214911206908134i           0.40981181289030955-0.5214909558126805i           -0.5955828154682491-0.4329542029523584i
250                                               -0.5963890909544032-0.45411746452821183i          0.38882151790051567-0.5189784851267041i           0.3888212678573897-0.5189782995181395i            -0.6165739613110961-0.42630724237292517i
260                                               -0.6158028600752535-0.4488386322908397i           0.368865205788489-0.5157950502327726i             0.36886494835507966-0.5157948434974111i           -0.6364945541243557-0.4189776452082827i
270                                               -0.6342312861867164-0.4430012276915142i           0.34990983915171975-0.5120406924214663i           0.3499095752088579-0.512040464248339i             -0.6553784802903231-0.411067345554276i
280                                               -0.651710771669349-0.4366922778083979i            0.33191827774054183-0.5078042526007311i           0.33191800815124173-0.5078040027630157i           -0.6732635725793735-0.40266702275505484i
290                                               -0.6682802097241515-0.42998886068327774i          0.3148508368457525-0.5031644168528311i            0.31485056243148996-0.50316414519275i             -0.6901902660125989-0.39385699921128003i
300                                               -0.6839799409573182-0.42295897902685936i          0.2986663524274667-0.4981906079751523i            0.29866607397507383-0.4981903143935627i           -0.7062005103958947-0.38470814942959036i
310                                               -0.6988509210813321-0.41566241692231753i          0.2833230307734196-0.492943859712698i             0.2833227490320838-0.492943544166201i             -0.7213369028400195-0.37528279152200633i
320                                               -0.7129340672004124-0.40815156062131547i          0.26877911588695885-0.48747765437970286i          0.26877883156533455-0.4874773168675043i           -0.7356420063236947-0.3656355414188545i
330                                               -0.7262697533357962-0.40047217130462703i          0.25499340455019925-0.4818387114869415i           0.25499311831544613-0.48183835204769965i          -0.7491578237435716-0.3558141171800565i
340                                               -0.7388974293846853-0.3926641027719813i           0.24192563539894488-0.47606772018776633i          0.24192534788354808-0.47606733889274955i          -0.7619254005626771-0.3458600860237715i
350                                               -0.750855341092922-0.38476196086211945i           0.22953677488923827-0.4702000122754993i           0.2295364866845676-0.47019960922176346i           -0.7739845327321021-0.33580955074605806i
360                                               -0.7621803319502346-0.37679570407461405i          0.21778921964012965-0.4642661751867598i           0.21778893130377666-0.464265750494315i            -0.7853735599488579-0.325693774967014i
370                                               -0.7729077108248752-0.36879118677634276i          0.20664693166917267-0.4582926064204928i           0.20664664372442781-0.4582921602287462i           -0.796129227439997-0.3155397486266882i
380                                               -0.7830711718244616-0.360770647647328i            0.19607552031156486-0.4523020120776284i           0.19607523324438506-0.4523015445373778i           -0.8062866021705181-0.30537069648617354i
390                                               -0.7927027551957712-0.35275314674105135i          0.1860422822431723-0.4463138529648449i            0.18604199651374784-0.4463133642427828i           -0.8158790318052646-0.2952065331652443i
400                                               -0.8018328399955892-0.3447549550427764i           0.17651620906380996-0.44034474222312003i          0.17651592509918593-0.4403442324927346i           -0.8249381368250158-0.2850642687094164i
410                                               -0.8104901610622313-0.3367899004812879i           0.1674679700691535-0.43440879851656156i           0.1674676882694699-0.4344082679565847i            -0.8334938279422461-0.2749583688515258i
420                                               -0.8187018441502981-0.32886967442334647i          0.15886987647380316-0.42851795889190863i          0.15886959721376076-0.42851740768806434i          -0.8415743424771759-0.2649010741307971i
430                                               -0.8264934543213057-0.3210041025199593i           0.15069583209540502-0.422682255257735i            0.1506955557247889-0.4226816835966886i            -0.8492062945565112-0.2549026818937429i
440                                               -0.8338890536915678-0.3132013835517092i           0.14292127448038722-0.4169100582024681i           0.14292100132749605-0.4169094662737692i           -0.8564147350723926-0.2449717949940921i
450                                               -0.8409112653929125-0.305468299725284i            0.13552310967990353-0.4112082916763592i           0.13552284005117923-0.4112076796681157i           -0.8632232181369203-0.23511554075929264i
460                                               -0.8475813413368121-0.2978104015368889i           0.12847964313739907-0.40558262171450093i          0.12847937732003178-0.40558198981703114i          -0.8696538715057992-0.22533976349178464i
470                                               -0.8539192318593494-0.29023217010644164i          0.12177050864930812-0.40003762216555533i          0.1217702469121854-0.4000369705641047i            -0.8757274689801374-0.21564919349625405i
480                                               -0.8599436558035557-0.2827371595435933i           0.11537659687439679-0.3945769200393444i           0.11537633947046784-0.39457624891842913i          -0.8814635032724956-0.2060475953401491i
490                                               -0.865672169921258-0.27532812171616505i           0.10927998453164121-0.38920332289184956i          0.10927973169831844-0.3892026324333022i           -0.8868802581796944-0.19653789777342515i
500                                               -0.8711212367791158-0.2680071154883953i           0.10346386512043496-0.38391893035853325i          0.10346361708046765-0.38391822074129794i          -0.8919948792053283-0.18712230748756892i
510                                               -0.8763062905754732-0.2607756022985331i           0.09791248176900183-0.37872523174335454i          0.09791223873179378-0.3787245031410074i           -0.8968234420154567-0.17780240864689636i
520                                               -0.8812418004501836-0.25363452971915723i          0.09261106263810148-0.3736231913400791i           0.09261082480234471-0.3736224439235159i           -0.9013810182906687-0.1685792499139475i
530                                               -0.8859413310055801-0.24658440448273963i          0.08754575916737252-0.36861332300054017i          0.08754552671914106-0.36861255693537087i          -0.9056817386875129-0.15945342049654695i
540                                               -0.8904175998887144-0.23962535623877457i          0.08270358731895441-0.3636957552406325i           0.08270336043483996-0.3636949706894675i           -0.909738852735631-0.15042511655331073i
550                                               -0.894682532340506-0.2327571932040289i            0.07807237191378137-0.35887028807045673i          0.07807215076160336-0.3588694851901759i           -0.9135647855900102-0.14149419914817957i
560                                               -0.898747312701006-0.22597945069518102i           0.07364069407263239-0.35413644255830284i          0.07364047881097031-0.35413562150299327i          -0.9171711916175289-0.1326602448042324i
570                                               -0.9026224329108716-0.21929143343193358i          0.0693978417210946-0.3494935040344956i            0.06939763250055292-0.3494926649517381i           -0.9205690048565064-0.12392258955808506i
580                                               -0.906317738067844-0.21269225237982348i           0.0653337630987333-0.34494055972073095i           0.06533356006352074-0.34493970275441815i          -0.9237684864155701-0.11528036734189334i
590                                               -0.9098424691392432-0.20618085681860054i          0.06143902316931395-0.3404765314849211i           0.061438826456365565-0.34047565677481495i         -0.9267792689172654-0.10673254338378384i
600                                               -0.9132053029454356-0.1997560622263667i           0.05770476281539293-0.3361002043235558i           0.057704572555790014-0.33609931200445975i         -0.9296103980981512-0.09827794325365091i
610                                               -0.9164143895354105-0.19341657450546068i          0.05412266069339881-0.3318102511088523i           0.054122477013123935-0.33180934131148626i         -0.932270371699574-0.08991527810122935i
620                                               -0.9194773870862402-0.18716101100312868i          0.05068489761519176-0.3276052540636547i           0.0506847206346483-0.3276043269145785i            -0.9347671757826695-0.08164316655453129i
630                                               -0.9224014944656826-0.18098791873592576i          0.04738412331378482-0.3234837233800362i           0.04738395314941691-0.3234827790013698i           -0.9371083186095148-0.0734601537057489i
640                                               -0.9251934815859124-0.1748957901580604i           0.044213425463005565-0.3194441133311261i          0.04421326222690737-0.3194431518411172i           -0.9393008622300861-0.06536472754166107i
650                                               -0.9278597176888437-0.168883076791374i            0.04116630080764066-0.31548483619806406i          0.041166144608001234-0.3154838577111274i          -0.9413514519145604-0.05735533314443894i
660                                               -0.930406197688547-0.16294820097970097i           0.03823662827615971-0.3116042742822858i           0.038236479217950786-0.3116032789086403i          -0.9432663435647332-0.04943038494003034i
670                                               -0.9328385666953146-0.15708956600469967i          0.035418643948935354-0.30780079024419665i         0.03541850213429906-0.3077997780910355i           -0.9450514292342262-0.041588277241522156i
680                                               -0.9351621428445303-0.15130556477226959i          0.03270691775623416-0.30407273598184725i          0.0327067832835716-0.3040717071520539i            -0.946712260885816-0.03382739329979859i
690                                               -0.9373819385440624-0.14559458724593832i          0.030096331790262464-0.3004184602300355i          0.030096204756653772-0.30041741482332485i         -0.9482540724986405-0.026146113054190047i
700                                               -0.9395026802453338-0.1399550267889042i           0.027582060123611283-0.2968363150442618i          0.027581940623211315-0.2968352531572311i          -0.9496818006467023-0.01854281974219711i
710                                               -0.9415288268440619-0.13438528555238582i          0.025159550026236634-0.293324661311248i           0.02515943815119703-0.29332358303725564i          -0.9510001036449566-0.011015905517763174i
720                                               -0.9434645868051635-0.1288837790307359i           0.02282450448450661-0.2898818734075001i           0.022824400324992673-0.2898807788368409i          -0.9522133793712216-0.003563776200999456i
730                                               -0.9453139341018014-0.12344893989145964i          0.020572865930431828-0.28650634311757567i         0.020572769575528296-0.2865052323375948i          -0.9533257818524277+0.0038151447270052385i
740                                               -0.9470806230522435-0.11807922117226254i          0.018400801095758843-0.2831964829056019i          0.018400712632714106-0.2831953560009048i          -0.9543412367066164+0.011122412789163058i
750                                               -0.9487682021356307-0.11277309892720144i          0.0163046869082421-0.2799507286238105i            0.01630460642295503-0.2799495856757924i           -0.9552634555193164+0.018359559751793767i
760                                               -0.9503800268575576-0.10752907439173773i          0.01428109735772184-0.2767675417296624i           0.014281024935115402-0.2767663828179898i          -0.9560959492326736+0.0255280913626723i
770                                               -0.9519192717343987-0.10234567573369992i          0.012326791261541856-0.27364541107975104i         0.012326726985431607-0.2736442362811467i          -0.9568420406178397+0.03262948552523552i
780                                               -0.9533889414605399-0.09722145944142581i          0.010438700863958853-0.2705828543526913i          0.01043864481710578-0.2705816637415818i           -0.9575048758966863+0.03966519084651898i
790                                               -0.9547918813169588-0.09215501139681205i          0.008613921210003378-0.2675784191504596i          0.008613873474885451-0.2675772127994237i          -0.9580874355731179+0.046636625514918734i
800                                               -0.9561307868750625-0.08714494767954918i          0.006849700238490099-0.26463068382444277i         0.006849660896207035-0.2646294618032719i          -0.9585925445338777+0.05354517646008424i
810                                               -0.9574082130485329-0.08218991513457512i          0.005143429540688076-0.26173825805980044i         0.005143398672365908-0.26173702043668634i         -0.9590228814664935+0.060392198755309254i
820                                               -0.9586265825370806-0.07728859173933486i          0.0034926357395464983-0.25889978325491086i        0.003492613425536123-0.2588985300961624i          -0.9593809876490276+0.06717901523291807i
830                                               -0.9597881937092506-0.07243968679664742i          0.0018949724415768697-0.2561139327226419i         0.0018949587618661405-0.2561126640924307i         -0.9596692751527436+0.07390691627938138i
840                                               -0.9608952279616578-0.06764194097843043i          3.4821272316972346E-4-0.2533794117390484i         3.4820775730480806E-4-0.2533781277000924i         -0.9598900345016013+0.08057715978539415i
850                                               -0.9619497565930858-0.06289412624371978i          -0.001149757887927585-0.2506949574634509i         -0.001149754060446754-0.25069365807655103i        -0.9600454418259555+0.08719097122893937i
860                                               -0.9629537472286275-0.058195045646805506i         -0.002600947971707085-0.24805933874605038i        -0.00260093527167065-0.24805802407057392i         -0.9601375655490102+0.09374954387109945i
870                                               -0.9639090698241447-0.053543533056086466i         -0.004007266346759201-0.24547135584442487i        -0.004007244695455316-0.24547002593836625i        -0.9601683726360893+0.1002540390460202i
880                                               -0.9648175022836174-0.04893845279460026i          -0.0053705278057622095-0.24292984005943144i       -0.005370497123894288-0.2429284949792755i         -0.9601397344394262+0.10670558653280829i
890                                               -0.9656807357117551-0.04437869921755745i          -0.006692458478818394-0.24043365330702807i        -0.006692418687823369-0.24043229310788677i        -0.9600534321675165+0.11310528499236011i
900                                               -0.9665003793339811-0.039863196235955696i         -0.007974700857090724-0.23798168763461816i        -0.007974651878125086-0.23798031237037262i        -0.9599111620031734+0.11945420246099027i
910                                               -0.967277965100833-0.03539089679749308i           -0.009218818494320937-0.23557286469363206i        -0.009218760248538339-0.23557147441691154i        -0.9597145398970065+0.1257533768887522i
920                                               -0.9680149520025063-0.030960782332814796i         -0.010426300412495175-0.23320613517671837i        -0.010426232820987504-0.23320472993906963i        -0.959465106057627+0.13200381671364886i
930                                               -0.9687127301123348-0.02657186217323093i          -0.011598565230650277-0.23088047822541227i        -0.011598488214512504-0.23087905807729228i        -0.9591643291600626+0.13820650146613947i
940                                               -0.9693726243779895-0.02222317294817001i          -0.0127369650362642-0.22859490081726486i          -0.01273687851649715-0.22859346580828668i         -0.9588136102915054+0.1443623823942931i
950                                               -0.9699958981776321-0.017913777966326216i         -0.013842789016566336-0.22634843713592148i        -0.01384269291401381-0.2263469873146154i          -0.9584142866524522+0.1504723831069671i
960                                               -0.9705837566570121-0.013642766586497237i         -0.01491726686632734-0.22414014793075726i         -0.014917161101695695-0.22413868334459394i        -0.9579676350301869+0.1565374002269196i
970                                               -0.9711373498626341-0.009409253580412606i         -0.015961571987276692-0.22196911986803194i        -0.015961456480968077-0.22196764056403584i        -0.9574748750594235+0.16255830405228047i
980                                               -0.9716577756840699-0.005212378493467445i         -0.016976824492829213-0.21983446488001124i        -0.01697669916515694-0.21983297090413267i         -0.9569371722851288+0.16853593922182888i
990                                               -0.972146082618949-0.0010513050046387674i         -0.017964094031693554-0.2177353195129802i         -0.01796395880287638-0.21773381091053814i         -0.9563556410401493+0.17447112537919124i
1000                                              -0.9726032723724705+0.003074779711503532i         -0.01892440244251291-0.21567084427738298i         -0.01892425723233967-0.21566932109291512i         -0.9557313471504061+0.18036465783646924i
