% Model:              A0_miki_lining_in_duct.mph
% Version:            COMSOL 6.2.0.290
% Date:               Apr 3 2026, 09:18
% Table:              Table 1 - Global Evaluation 1
% freq (Hz)                                       S11 (1)                                           S21 (1)                                           S12 (1)                                           S22 (1)
49.99999999999999                                 -7.198362825299175E-4-0.013093244141148156i       0.997291319191353-0.06793449039075232i            0.9972913191913684-0.06793449039043702i           -7.19836574946564E-4-0.013093243945566426i
52.96268625886442                                 -8.077663802867895E-4-0.013866886398617615i       0.9969613746938601-0.07194724429072502i           0.9969613746938861-0.07194724429042937i           -8.07766719108871E-4-0.013866886163564053i
56.10092271509817                                 -9.064500783049211E-4-0.014685953510101091i       0.9965913164583287-0.0761953989314576i            0.9965913164583863-0.07619539893087697i           -9.064504716318477E-4-0.01468595322696791i
59.42511137185091                                 -0.0010172056315256304-0.015553056879002066i      0.9961762873192496-0.08069245879438214i           0.9961762873192419-0.08069245879433336i           -0.001017206089467426-0.015553056538428046i
62.94627058970836                                 -0.0011415136393584378-0.01647094698971082i       0.9957108470430038-0.08545264583471734i           0.9957108470430313-0.08545264583455939i           -0.0011415141735704457-0.016470946578607308i
66.6760716081662                                  -0.0012810372006303303-0.017442518481711442i      0.9951889036296336-0.09049092667477938i           0.9951889036296115-0.09049092667493315i           -0.0012810378258031328-0.01744251798514716i
70.6268772311377                                  -0.00143764460836715-0.01847081493557483i         0.9946036368440455-0.09582303868726211i           0.9946036368440891-0.09582303868695141i           -0.0014376453417920263-0.018470814333900052i
74.81178280472167                                 -0.0016134348982563826-0.01955903311063362i       0.9939474131897372-0.10146551430765642i           0.9939474131897654-0.10146551430737659i           -0.0016134357606780723-0.0195590323810733i
79.24465962305565                                 -0.0018107666206190751-0.020710526500323234i      0.9932116914645813-0.10743570296724575i           0.9932116914645444-0.10743570296746913i           -0.001810767637211996-0.020710525614527815i
83.94020090612803                                 -0.0020322902392365667-0.021928807905192988i      0.9923869179904897-0.11375178978827914i           0.9923869179904781-0.11375178978835272i           -0.0020322914403354537-0.021928806826731713i
88.91397050194612                                 -0.0022809846205171787-0.023217550750858993i      0.9914624105426372-0.12043281011731885i           0.9914624105426211-0.12043281011743161i           -0.0022809860424543023-0.02321754943549431i
94.18245447449                                    -0.0025601981149425686-0.024580588704181717i      0.9904262299669915-0.12749865869608504i           0.9904262299668726-0.12749865869680013i           -0.002560199801808882-0.024580587097049408i
99.76311574844398                                 -0.0028736948106294897-0.026021913149813114i      0.9892650384187028-0.13497009216827732i           0.9892650384186799-0.1349700921684268i            -0.002873696815038129-0.02602191118053323i
105.67445199183237                                -0.0032257065744233366-0.027545667859215958i      0.9879639431445286-0.1428687232722193i            0.9879639431445942-0.1428687232718458i            -0.003225708959568418-0.027545665441223322i
111.93605692841699                                -0.00362099158039586-0.02915614013423621i         0.9865063247033024-0.15121700489817516i           0.9865063247032974-0.15121700489819373i           -0.0036209944218515973-0.0291561371598674i
118.56868528308274                                -0.004064900063504017-0.030857747444993696i       0.9848736485516628-0.16003820180386397i           0.984873648551761-0.1600382018033416i             -0.004064903451131418-0.030857743776929507i
125.59432157547896                                -0.004563448103170441-0.03265501840411673i        0.9830452589533661-0.16935634748628242i           0.9830452589534348-0.169356347485915i             -0.0045634521432516-0.03265501387161808i
133.0362529899404                                 -0.005123400270189648-0.034552566630913155i       0.9809981542639122-0.17919618331279613i           0.9809981542638835-0.17919618331295162i           -0.005123405087769316-0.03455256101857394i
140.91914656322274                                -0.0057523619903376835-0.03655505570617331i       0.9787067427754286-0.1895830765758457i            0.9787067427754322-0.18958307657581827i           -0.005752367730743168-0.03655504874157861i
149.26913094589798                                -0.0064588824575118045-0.03866715303450306i       0.9761425784993345-0.20054291369720215i           0.9761425784993473-0.20054291369713398i           -0.00645888928885252-0.03866714437549428i
158.11388300841895                                -0.00725256886149228-0.040893469950980955i        0.9732740765281864-0.2121019643173304i            0.9732740765281659-0.2121019643173651i            -0.0072525769752768135-0.040893459166562604i
167.48271957891376                                -0.008144212533670479-0.043238484789558246i       0.9700662079806485-0.22428671143464315i           0.9700662079805407-0.22428671143501416i           -0.008144222143974365-0.04323847133743589i
177.40669461678763                                -0.009145927369754612-0.04570644500968489i        0.9664801749708225-0.23712364226003432i           0.9664801749707639-0.23712364226022106i           -0.009145938710639399-0.04570642820734476i
187.91870214422212                                -0.01027130047658109-0.04830124366319496i         0.9624730666157487-0.2506389938471614i            0.9624730666157016-0.25063899384730537i           -0.010271313796357038-0.048301222655035045i
199.05358527674863                                -0.011535554385800338-0.0510262646154822i         0.9579974977853453-0.264858446995615i             0.9579974977853101-0.264858446995701i             -0.011535569935482102-0.05102623833040196i
210.8482517142911                                 -0.012955719318860191-0.053884189968536465i       0.9530012331285387-0.27980676136113625i           0.9530012331285579-0.27980676136104426i           -0.012955737334164772-0.05388415706987009i
223.34179607548148                                -0.014550812792254673-0.05687676210230523i        0.9474267999000829-0.295507344166483i             0.9474267999001855-0.2955073441662237i            -0.014550833465199363-0.056876720928783896i
236.5756294807401                                 -0.01634202224756964-0.06000449172485592i         0.9412110942604395-0.31198174442511734i           0.941211094260515-0.3119817444249001i             -0.016342045684814784-0.060004440221482394i
250.5936168136362                                 -0.018352884277112676-0.06326630233405085i        0.9342849870588192-0.32924906414395566i           0.934284987058796-0.3292490641439967i             -0.018352910439266342-0.06326623797280588i
265.4422221154942                                 -0.020609451319216873-0.06665910073770216i        0.9265729366205143-0.3473252776583795i            0.926572936620624-0.34732527765813953i            -0.020609479936851357-0.06665902042851313i
281.1706625951745                                 -0.023140433321496175-0.07017726284267861i        0.9179926177836115-0.36622245002104364i           0.9179926177837037-0.36622245002083353i           -0.02314046378043044-0.07017716284003449i
297.8310717645051                                 -0.02597729775805568-0.07381202405153454i         0.9084545783699238-0.3859478452706971i            0.9084545783698724-0.3859478452708427i            -0.02597732894625526-0.07381189985552648i
315.47867224009644                                -0.029154306550366656-0.07755076461342775i        0.8978619364368264-0.40650291552799517i           0.8978619364368825-0.4065029155279156i            -0.0291543366566801-0.07755061087489618i
334.1719587843074                                 -0.03270846288385087-0.08137618239460993i         0.8861101341020546-0.4278821621424903i            0.8861101341020735-0.427882162142429i             -0.03270848914354118-0.0813759928359774i
353.97289219206897                                -0.036679334839317394-0.08526534924617309i        0.8730867664463596-0.45007186072955874i           0.8730867664463411-0.4500718607295939i            -0.036679353213317716-0.08526511660751776i
374.94710466622786                                -0.04110871639649893-0.08918865276129292i         0.8586715070359522-0.47304864288019355i           0.8586715070360221-0.4730486428801082i            -0.041108721181502876-0.08918836879291861i
397.16411736214064                                -0.046040080168335044-0.09310863318260926i        0.8427361549606694-0.4967779287958015i            0.8427361549606313-0.4967779287958515i            -0.04604006353268552-0.09310828870859833i
420.6975708225973                                 -0.05151777075738994-0.09697873582155553i         0.8251448319383932-0.5212122071973867i            0.825144831938374-0.5212122071974121i             -0.05151772220521033-0.09697832089956246i
445.6254690668729                                 -0.05758588367687944-0.10074201284899248i         0.8057543618866096-0.546289161833434i             0.8057543618866826-0.5462891618333476i            -0.057585789449879236-0.10074151706352648i
472.0304381429617                                 -0.06428677324672959-0.10432982472472328i         0.7844148692228327-0.5719296479392451i            0.7844148692229214-0.5719296479391568i            -0.06428661568376402-0.10432923764848338i
499.99999999999994                                -0.07165913480780349-0.10766061065292626i         0.7609706357055698-0.5980355272644764i            0.760970635705565-0.5980355272644899i             -0.07165889169504867-0.10765992251257424i
529.6268625886448                                 -0.0797356130861666-0.11063881879376221i          0.735261258383952-0.6244873768604753i             0.7352612583838954-0.6244873768605336i            -0.0797352570440346-0.11063802137601321i
561.0092271509814                                 -0.08853990064620774-0.11315410970037271i         0.7071231525832175-0.6511420945586405i            0.7071231525832004-0.6511420945586537i            -0.08853939861746839-0.11315319752574717i
594.2511137185094                                 -0.09808330904716832-0.1150809694187639i          0.6763914431398789-0.6778304325061726i            0.6763914431399277-0.6778304325061318i            -0.09808262196630134-0.1150799411953521i
629.4627058970837                                 -0.1083608212812711-0.11627889041757705i          0.6429022837167248-0.7043544983579996i            0.6429022837166928-0.7043544983580251i            -0.10835990401846816-0.11627775077116774i
666.7607160816619                                 -0.11934666773980261-0.1165932972727392i          0.6064956376843006-0.7304852703315793i            0.606495637684333-0.7304852703315565i             -0.11934546942432976-0.11659205872183051i
706.2687723113777                                 -0.13098950937099127-0.1158574079298759i          0.5670185450567381-0.7559601754286238i            0.5670185450567097-0.7559601754286382i            -0.13098797420680894-0.11585609304415746i
748.1178280472163                                 -0.14320736047363755-0.11389522845622618i         0.5243288896143117-0.7804807774783071i            0.524328889614375-0.7804807774782754i             -0.14320542915236864-0.11389387210009402i
792.4465962305569                                 -0.1558824389417883-0.11052587764354356i          0.47829967122603917-0.8037106110583082i           0.4782996712260172-0.8037106110583073i            -0.1558800507532396-0.11052452916630243i
839.4020090612802                                 -0.168856192655622-0.10556942605180593i           0.42882378473256655-0.8252731771679419i           0.4288237847326084-0.8252731771679278i            -0.1688532883658915-0.10556815124632027i
889.1397050194613                                 -0.18192481592700413-0.09885441093186173i         0.3758193144987313-0.8447500864265308i            0.37581931449876504-0.8447500864265238i           -0.18192134146650582-0.09885329354122421i
941.8245447449009                                 -0.19483563860241557-0.09022715324049876i         0.3192353804343759-0.8616792974809245i            0.31923538043436733-0.8616792974809293i           -0.19483154955225876-0.09022629575519603i
997.6311574844393                                 -0.2072848426096313-0.07956295529459423i          0.2590586255993829-0.8755533573428625i            0.25905862559937065-0.8755533573428604i           -0.20728010941479644-0.07956247875055382i
1056.7445199183237                                -0.2189170380558749-0.06677919689552264i          0.1953205265098343-0.8858175159378405i            0.19532052650982404-0.8858175159378426i           -0.21891165181388603-0.06677923935729951i
1119.36056928417                                  -0.22932731749113042-0.0518502719263385i          0.12810584324907653-0.8918675738141305i           0.12810584324908436-0.8918675738141322i           -0.22932129606700388-0.051850985327401726i
1185.6868528308275                                -0.23806650951381933-0.034824210834392876i        0.057562713635849215-0.8930473505584129i          0.057562713635835906-0.8930473505584118i          -0.2380599036126488-0.03482575585014796i
1255.943215754791                                 -0.24465048088012273-0.015840704520667093i        -0.016084863796855944-0.8886457602041009i         -0.016084863796859576-0.8886457602041046i         -0.24464337956311463-0.01584324317917766i
1330.362529899404                                 -0.24857449936246165+0.004849941995735575i        -0.09252112360177339-0.8778936861360677i          -0.09252112360178219-0.8778936861360672i          -0.24856703431849878+0.00484625619313944i
1409.1914656322274                                -0.24933387278122285+0.026867683154125358i        -0.171317845510917-0.8599612107322518i            -0.17131784551089735-0.859961210732259i           -0.24932622045933892+0.026862717701047877i
1492.69130945898                                  -0.2464523132770858+0.04968463821987126i          -0.2519072003330425-0.8339563385426532i           -0.25190720033302755-0.8339563385426643i          -0.24644469375342146+0.04967829654357318i
1581.1388300841895                                -0.23951969864965147+0.07260993399471621i         -0.3335461811247335-0.798927239335062i            -0.3335461811247261-0.7989272393350654i           -0.23951236985830734+0.07260217239970454i
1674.8271957891395                                -0.22824101335904254+0.09478046265087678i         -0.4152705882554374-0.7538713310706386i           -0.4152705882554415-0.7538713310706384i           -0.22823425910255865+0.09477130826023858i
1774.0669461678763                                -0.21249804730480878+0.11516210530682465i         -0.4958368495890879-0.6977563328894807i           -0.49583684958908525-0.6977563328894796i          -0.21249215735434576+0.1151516732081454i
1879.1870214422213                                -0.19242454654920513+0.1325681416312468i          -0.5736510324823682-0.6295608228478948i           -0.5736510324823759-0.6295608228478905i           -0.1924197872937828+0.13255664833226813i
1990.5358527674864                                -0.1684933540584643+0.14570429150168665i          -0.6466868337971527-0.5483447832954239i           -0.646686833797154-0.5483447832954234i            -0.1684899288036897+0.14569206037602492i
2108.482517142911                                 -0.14160978603294702+0.15325273257197036i         -0.7123989826980593-0.4533637263225301i           -0.7123989826980557-0.4533637263225409i           -0.14160778553894235+0.15324018532380473i
2233.417960754817                                 -0.11319799643902849+0.154009423863637i           -0.767646437387441-0.3442421953623521i            -0.7676464373874341-0.3442421953623672i           -0.11319734308232364+0.1539970505073622i
2365.756294807401                                 -0.08525550363823063+0.14708784929965585i         -0.8086519309346629-0.2212214740544847i           -0.8086519309346678-0.22122147405446912i          -0.08525589714170433+0.1470761485076408i
2505.936168136362                                 -0.06033568261951849+0.13219389827142636i         -0.8310406242062964-0.08548825205311585i          -0.8310406242062973-0.08548825205311768i          -0.060336561762624134+0.13218328159790535i
2654.422221154942                                 -0.04140228116699884+0.10995551277968468i         -0.8300176122855418+0.06042969833780801i          -0.8300176122855416+0.060429698337809507i         -0.04140282348723833+0.10994617229709366i
2811.706625951745                                 -0.03149314851971129+0.08225199072313058i         -0.800752843754709+0.21225309750363464i           -0.8007528437547083+0.21225309750363475i          -0.03149233610281032+0.08224374228788456i
2978.3107176450544                                -0.03314915357125935+0.05243272167770912i         -0.7390263236641436+0.3636330832076252i           -0.7390263236641481+0.3636330832076185i           -0.033145932259779014+0.052424856291868875i
3154.7867224009647                                -0.04762916044699383+0.02526057915533254i         -0.6421265292427206+0.506087453946746i            -0.6421265292427171+0.5060874539467519i           -0.04762270456151684+0.025251779392875047i
3341.719587843074                                 -0.07405162118848506+0.0064011155688762054i       -0.5098830723348373+0.6293692190866017i           -0.5098830723348364+0.6293692190866016i           -0.07404167978861141+0.006389512129966881i
3539.72892192069                                  -0.10874875420281159+0.0013584587066868005i       -0.3455811875750405+0.7223714288196232i           -0.3455811875750486+0.7223714288196198i           -0.10873600019086159+0.0013418960093339578i
3749.4710466622787                                -0.14520801448372975+0.013958713037844676i        -0.1564343212820702+0.7744863433513929i           -0.1564343212820714+0.7744863433513923i           -0.1451942625879856+0.013935245304864752i
3971.6411736214104                                -0.17490548655773516+0.04474571863201973i         0.046615871961921386+0.7771039896381647i          0.04661587196192216+0.7771039896381636i           -0.17489362287749408+0.04471426806282014i
4206.975708225973                                 -0.18907651979392656+0.0898386343168163i          0.24972037067523822+0.7248149703425923i           0.2497203706752381+0.7248149703425931i            -0.18907002409463478+0.08979963598504499i
4456.2546906687285                                -0.18113196260787187+0.14077610214289143i         0.4371743650173111+0.6160318799200644i            0.4371743650173154+0.6160318799200625i            -0.18113401066028642+0.14073187822647912i
4720.304381429617                                 -0.14919674375328504+0.1856642838694725i          0.5921630389129272+0.45316886993453886i           0.5921630389129237+0.45316886993454397i           -0.14920903107294534+0.18561886509147804i
4999.999999999999                                 -0.09817281084956807+0.21174369173626476i         0.6969180355389976+0.24302854569147886i           0.6969180355389966+0.24302854569148394i           -0.098194424728525+0.2117018503479103i
5296.268625886442                                 -0.040594683997103524+0.20941171238979006i        0.7327243332437751-0.001670827969417589i          0.732724333243776-0.0016708279694192965i          -0.04062157467646898+0.20937712612275172i
5610.0922715098195                                0.004965864494165139+0.17748382638802646i         0.6813382584802739-0.25907033922948075i           0.6813382584802722-0.259070339229487i             0.004940036860271556+0.17745668857821256i
5942.5111371850935                                0.019850842877208282+0.12816337735353953i         0.5303779409615287-0.4944195630336418i            0.5303779409615264-0.4944195630336453i            0.019831776579259604+0.12813858564258593i
