% Model:              A0_jca_lining_in_rectduct_zs.mph
% Version:            COMSOL 6.2.0.290
% Date:               Apr 3 2026, 09:36
% Table:              Table 2 - Global Evaluation 1
% freq (Hz)                                       S11 (1)                                           S21 (1)                                           S22 (1)                                           S12 (1)
49.99999999999999                                 -8.18717263312729E-4-0.011882447161142909i        0.9976731911156608-0.06678137816300173i           -8.187172637300961E-4-0.011882447161113533i       0.9976731911156613-0.06678137816300178i
53.98875811638549                                 -9.543209656464602E-4-0.012823981054235706i       0.9972874008868988-0.07209828094017878i           -9.543209662140715E-4-0.012823981054192576i       0.9972874008868993-0.07209828094017878i
58.29572005899158                                 -0.0011123395299117243-0.013838974176433308i      0.9968376961714394-0.07783660043174227i           -0.001112339530682812-0.013838974176369995i       0.9968376961714398-0.0778366004317423i
62.94627058970836                                 -0.001296461860571863-0.014932860372202435i       0.9963135062497824-0.0840292469666493i            -0.001296461861619916-0.014932860372109537i       0.9963135062497827-0.08402924696664932i
67.96781954392627                                 -0.0015109781374321306-0.0161113971849251i        0.9957025186205166-0.0907115734821619i            -0.001510978138854875-0.016111397184788833i       0.9957025186205175-0.090711573482162i
73.38996338110348                                 -0.0017608757238574606-0.01738066353937835i       0.9949903943291764-0.09792152331161351i           -0.0017608757257900932-0.017380663539178397i      0.994990394329177-0.09792152331161356i
79.24465962305565                                 -0.0020519496133246176-0.018747050086197755i      0.9941604376077496-0.10569977769715447i           -0.0020519496159491623-0.018747050085904417i      0.99416043760775-0.10569977769715454i
85.56641520808904                                 -0.0023909293384088183-0.02021723983270286i       0.9931932127930424-0.11408989993891337i           -0.002390929341971591-0.020217239832272537i       0.9931932127930431-0.11408989993891347i
92.39248987111452                                 -0.002785624413589193-0.021798176060073827i       0.9920661005195002-0.12313847207809546i           -0.002785624418425246-0.021798176059442686i       0.9920661005195005-0.12313847207809551i
99.76311574844398                                 -0.0032450904950974756-0.023497013753277163i      0.9907527841161305-0.1328952187302211i            -0.0032450905016586174-0.023497013752351654i      0.9907527841161317-0.13289521873022123i
107.72173450159421                                -0.0037798184912425994-0.025321049815730114i      0.9892226559856913-0.1434131110719092i            -0.0037798185001429066-0.02532104981437311i       0.989222655985692-0.14341311107190932i
116.3152533576813                                 -0.004401948807930209-0.027277626168967204i       0.9874401325243729-0.15474844196262122i           -0.00440194881999892-0.027277626166977882i        0.9874401325243733-0.15474844196262136i
125.59432157547896                                -0.005125512714287834-0.029373998407300695i       0.9853638648819746-0.16696086065800622i           -0.005125512730646151-0.029373998404385128i       0.9853638648819744-0.16696086065800628i
135.61362896660145                                -0.005966702390384492-0.03161716094360728i        0.9829458316146573-0.18011335243228035i           -0.005966702412543655-0.03161716093933531i        0.982945831614658-0.18011335243228044i
146.43222823126186                                -0.006944170474514905-0.034013617498018546i       0.9801302981190494-0.19427214454179778i           -0.006944170504516188-0.034013617491760934i       0.9801302981190502-0.1942721445417979i
158.11388300841895                                -0.008079358728524881-0.03656908330144978i        0.9768526267668548-0.20950651517764676i           -0.008079358769117043-0.036569083292286794i       0.9768526267668551-0.20950651517764687i
170.72744369168                                   -0.009396853608492574-0.03928810247388569i        0.9730379210392799-0.22588847619735386i           -0.009396853663369715-0.03928810246047361i        0.9730379210392803-0.22588847619735394i
184.34725322597865                                -0.010924763830342459-0.04217356067522463i        0.9685994869085882-0.24349229330079966i           -0.010924763904463187-0.0421735606556023i         0.9685994869085887-0.24349229330079977i
199.05358527674863                                -0.012695111149910005-0.04522606933136557i        0.9634370955290633-0.2623937987153907i            -0.01269511124991397-0.04522606930267281i         0.9634370955290641-0.26239379871539087i
214.9331173541138                                 -0.014744220141995164-0.048443193586863005i       0.957435033384389-0.282669441169016i              -0.01474422027675047-0.048443193544933566i        0.9574350333843895-0.282669441169016i
232.07944168063884                                -0.017113085267564773-0.051818491800652865i       0.9504599299260882-0.30439500575941375i           -0.017113085448877186-0.05181849173942531i        0.9504599299260887-0.30439500575941403i
250.5936168136362                                 -0.019847683350620936-0.0553403302041525i         0.9423583591212511-0.3276439221213272i            -0.019847683594149335-0.055340330114821236i       0.9423583591212517-0.3276439221213272i
270.58476327323183                                -0.022999186012053502-0.05899043282445138i        0.9329542210905488-0.35248506297989257i           -0.022999186338475645-0.05899043269424713i        0.9329542210905494-0.3524850629798927i
292.1707066867587                                 -0.02662400877924726-0.06274212480496785i         0.922045924260505-0.3789799168382021i             -0.026624009215720664-0.0627421246154107i         0.9220459242605058-0.3789799168382024i
315.47867224009644                                -0.030783610583339914-0.06655822815425402i        0.9094034085134104-0.40717899848602i              -0.03078361116530296-0.06655822787866317i         0.9094034085134111-0.4071789984860204i
340.6460345289807                                 -0.035543928255289785-0.07038857467202404i        0.8947650772639238-0.4371173398781048i            -0.03554392902862034-0.07038857427198728i         0.8947650772639244-0.43711733987810497i
367.82112722982066                                -0.04097429469100843-0.07416711413164184i         0.8778347429906688-0.46880888282160177i           -0.04097429571452195-0.07416711355204003i         0.8778347429906692-0.46880888282160194i
397.16411736214064                                -0.047145646274339724-0.07780862061478443i        0.8582787383815812-0.5022395755454296i            -0.04714564762252396-0.07780861977683162i         0.8582787383815815-0.5022395755454298i
428.8479492954472                                 -0.054127775515049124-0.08120504140506873i        0.8357234057430206-0.5373589600506942i            -0.05412777728078968-0.08120504019666734i         0.8357234057430211-0.5373589600506945i
463.0593640643968                                 -0.06198533083716141-0.08422159780487817i         0.8097532522132547-0.574070029427561i             -0.06198533313397807-0.08422159606739965i         0.8097532522132551-0.5740700294275614i
499.99999999999994                                -0.07077221175447967-0.08669284401842023i         0.7799101485362484-0.612217138115457i             -0.07077221471741547-0.08669284152883709i         0.7799101485362487-0.6122171381154571i
539.8875811638546                                 -0.08052396292147838-0.08841902864556975i         0.7456940546499112-0.6515717679437792i            -0.08052396670521261-0.08841902509272039i         0.745694054649912-0.6515717679437795i
582.9572005899155                                 -0.09124774906467044-0.08916329388935633i         0.7065658748625161-0.6918159932081658i            -0.0912477538365949-0.08916328884311478i          0.7065658748625163-0.6918159932081661i
629.4627058970837                                 -0.10290951676352085-0.0886505000626671i          0.6619531765710428-0.7325235523933487i            -0.10290952268833872-0.08865049293506969i         0.6619531765710431-0.732523552393349i
679.6781954392627                                 -0.11541805096474571-0.08656878368441846i         0.6112596468301923-0.7731385232495736i            -0.115418058175646-0.08656877368263215i           0.611259646830193-0.7731385232495744i
733.8996338110352                                 -0.1286058592714379-0.08257534482206762i          0.5538793105801536-0.8129517083604479i            -0.128605867821029-0.08257533089485432i           0.5538793105801539-0.8129517083604484i
792.4465962305569                                 -0.14220722555885112-0.07630839732854629i         0.4892167006059699-0.8510749615722681i            -0.1422072353411687-0.07630837811122486i          0.4892167006059701-0.8510749615722687i
855.6641520808904                                 -0.15583444223249382-0.06740766422268046i         0.41671437652253995-0.8864138097410137i           -0.15583445286608272-0.06740763799120039i         0.41671437652254023-0.8864138097410142i
923.9248987111453                                 -0.16895424828060904-0.055546182356993774i        0.33588949232432735-0.9176388418358736i           -0.1689542589433508-0.055546147010618836i         0.33588949232432735-0.9176388418358737i
997.6311574844393                                 -0.18086797009011532-0.04047636216226358i         0.24638160998704006-0.9431564662089552i           -0.18086797930158663-0.040476315267165906i        0.24638160998704006-0.9431564662089554i
1077.217345015941                                 -0.19070088770085106-0.02209301161960834i         0.14801481280583173-0.9610798618107937i           -0.190700893061923-0.02209295056236025i           0.14801481280583184-0.9610798618107943i
1163.1525335768129                                -0.197409016073153-5.150312572868211E-4i          0.040878611645875314-0.9692014992724537i          -0.1974090140018796-5.149535754015252E-4i         0.04087861164587548-0.9692014992724544i
1255.9432157547897                                -0.19981481641503743+0.023814831227416965i        -0.07456559531478882-0.9649699806245047i          -0.19981480197198037+0.02381492725847658i         -0.07456559531478885-0.9649699806245053i
1356.1362896660146                                -0.19668716531697486+0.05001727852238224i         -0.19734253337301333-0.9454770870082678i          -0.1966871323024736+0.050017392977073104i         -0.19734253337301338-0.9454770870082679i
1464.3222823126184                                -0.18688456418468807+0.07666393440372639i         -0.32577174900972755-0.9074674323465968i          -0.1868845058216495+0.07666406446830443i          -0.3257717490097276-0.9074674323465968i
1581.1388300841895                                -0.16958232927073244+0.10169149023627035i         -0.457210375551923-0.8473953677040517i            -0.16958223994717458+0.10169162882791083i         -0.4572103755519232-0.8473953677040521i
1707.2744369168001                                -0.14460034190039192+0.12238985223673247i         -0.587715595487633-0.7615745589950299i            -0.14460022057423272+0.12238998705141937i         -0.5877155954876334-0.7615745589950303i
1843.4725322597865                                -0.11282970420151077+0.1355405258581347i          -0.7116284275513322-0.6464964828595997i           -0.11282955999608486+0.13554064010640332i         -0.7116284275513326-0.6464964828596003i
1990.5358527674864                                -0.07671034750602114+0.1378130500070337i          -0.8211253020792588-0.4994304006641282i           -0.07671020739122376+0.1378131270937449i          -0.821125302079259-0.4994304006641285i
2149.331173541138                                 -0.04061950815959487+0.1265402146365337i          -0.9058771817367429-0.3194385853615587i           -0.04061942483445509+0.12654025003190406i         -0.9058771817367435-0.31943858536155884i
2320.794416806391                                 -0.010886457329044603+0.10093601964722031i        -0.9531072294069032-0.10889605732981412i          -0.01088651188838635+0.10093604309042967i         -0.953107229406904-0.10889605732981418i
2505.936168136362                                 0.005002202052826814+0.06361078132128516i         -0.9485061170577432+0.12458949574955214i          0.005001913121346795+0.0636108889606255i          -0.948506117057744+0.1245894957495523i
2705.8476327323183                                4.3911263806571183E-4+0.021813918698863795i       -0.8784962957407301+0.36636810045880125i          4.385200679625724E-4+0.021814304665507708i        -0.8784962957407306+0.36636810045880147i
2921.7070668675874                                -0.02702940036808067-0.012683035255920143i        -0.73396849614005+0.5940642792503773i             -0.027030258482870082-0.012682075734855842i       -0.7339684961400503+0.5940642792503777i
3154.7867224009647                                -0.07222584080083605-0.026276934577561493i        -0.5147090362951435+0.7791775453331903i           -0.07222672016603493-0.026275074474252893i        -0.514709036295144+0.7791775453331906i
3406.4603452898036                                -0.12086992524273-0.00907414794100823i            -0.2327813917274097+0.8912919357329323i           -0.12087032771704306-0.00907120522211043i         -0.23278139172740983+0.8912919357329327i
3678.2112722982065                                -0.15247012145919153+0.038444705853608416i        0.08669222822848706+0.9035715019336932i           -0.15246942259189228+0.038448514411477876i        0.08669222822848709+0.9035715019336938i
3971.6411736214063                                -0.14829130508947075+0.10115276493782514i         0.4069522718039143+0.79739712401452i              -0.14828918073941616+0.10115666434347166i         0.4069522718039145+0.7973971240145206i
4288.479492954472                                 -0.10253444627277349+0.1511666263392675i          0.6807307040116005+0.5659010250675988i            -0.10253156716012568+0.1511695817065694i          0.6807307040116007+0.565901025067599i
4630.593640643968                                 -0.03238722247307895+0.1588285267576623i          0.8498180581904381+0.22025130162809375i           -0.03238572083363401+0.15883044552393452i         0.8498180581904387+0.22025130162809384i
4999.999999999999                                 0.021339332222033745+0.11368330657356018i         0.84898591142235-0.19583092150538642i             0.021336906824299735+0.11368700881441166i         0.8489859114223504-0.19583092150538645i
