% Model:              Three_mic_technique_surogate_test2remove.mph
% Version:            COMSOL 6.2.0.290
% Date:               Mar 19 2026, 10:02
% Table:              Table 12 - Point Evaluation 2
% freq (Hz)                                       Total acoustic pressure (Pa), Point: 7            Total acoustic pressure (Pa), Point: 8            Total acoustic pressure (Pa), Point: 9            Total acoustic pressure (Pa), Point: 10           Total acoustic pressure (Pa), Point: 11           Total acoustic velocity, z-component (m/s), Point: 7 Total acoustic velocity, z-component (m/s), Point: 8 Total acoustic velocity, z-component (m/s), Point: 9 Total acoustic velocity, z-component (m/s), Point: 10 Total acoustic velocity, z-component (m/s), Point: 11
49.99999999999999                                 2.0009286191994886-8.417182646253274E-4i          2.003354271240686-8.427386485821291E-4i           2.0051526711718775-8.434951703561806E-4i          2.005252437275113-8.435371383456788E-4i           2.0052865953558694-8.43551507414209E-4i           1.3229369277430974E-7+3.144880640876038E-4i          8.566073704722718E-8+2.0363229324166284E-4i          1.863428840380423E-8+4.42973409713255E-5i            1.1962351050772215E-8+2.843684351178132E-5i           -7.417926024236214E-16-2.1829905063179894E-12i
56.10092271509817                                 1.999848026286663-9.439446651783261E-4i           2.002901352479331-9.453858600591481E-4i           2.0051653234737548-9.464544729305559E-4i          2.005290924061285-9.465137574376641E-4i           2.0053339275205917-9.465340554230404E-4i          1.6652349933013887E-7+3.527980444454829E-4i          1.0783596454276946E-7+2.284620582523846E-4i          2.3460364194824715E-8+4.970329804879824E-5i          1.506054067843396E-8+3.1907370915689443E-5i           -1.329704310072364E-15-1.9077840354224685E-12i
62.94627058970836                                 1.9984879156840079-0.0010584471799042552i         2.0023312094642702-0.001060482680395753i          2.005181252692063-0.0010619921317126578i          2.005339378433321-0.0010620758789015021i          2.00539351813962-0.001062104552589742i            2.0960201244629779E-7+3.9575641890691923E-4i         1.3575028413293802E-7+2.5631444614336953E-4i         2.9536727384104346E-8+5.5769238063368986E-5i         1.8961417907271013E-8+3.580165857710327E-5i           -1.3979179100793815E-15-2.6093434579748986E-12i
70.6268772311377                                  1.9967760737055948-0.0011866423440447362i         2.001613517482567-0.0011895171356823126i          2.0052013074380124-0.0011916492843679824i         2.0054003822443884-0.0011917675903703156i         2.0054685425666845-0.0011918080966272096i         2.6381204515338876E-7+4.439196058861491E-4i          1.7088814744910446E-7+2.875553583681053E-4i          3.718751462745195E-8+6.25758383191733E-5i            2.3873104036553745E-8+4.0171533733153776E-5i          -1.8818637451101616E-15-2.726422502937628E-12i
79.24465962305565                                 1.9946216829613193-0.0013300860477741747i         2.0007101165467227-0.001334146035680332i          2.0052265565390703-0.0013371577615972653i         2.0054771868455292-0.0013373248909714886i         2.0055629995230855-0.0013373821139757752i         3.3202261811549453E-7+4.979074800677423E-4i          2.1511746807746864E-7+3.2259414150504455E-4i         4.682102780822523E-8+7.02136808881317E-5i            3.00577754801234E-8+4.507519707474301E-5i             -1.7374815775732585E-15-2.888360829669986E-12i
88.91397050194612                                 1.9919105598683389-0.0014904767045648669i         1.9995729917393141-0.0014962102327214467i         2.0052583457557738-0.0015004643834275807i         2.005573886426395-0.0015007004914277264i          2.005681924393351-0.0015007813324434583i          4.1783788091852467E-7+5.584092897509116E-4i          2.707883727684064E-7+3.618883933147276E-4i           5.895166364827961E-8+7.878448621128899E-5i           3.7845756543247686E-8+5.057802104443856E-5i           -2.6657049839595293E-15-3.838765749432512E-12i
99.76311574844398                                 1.9884991920393638-0.0016696533031661952i         1.998141737135173-0.0016777497137817322i          2.0052983702123317-0.0016837588165754937i         2.0056956374394153-0.0016840923839917315i         2.0058316590198055-0.0016842065951927314i         5.257829673924028E-7+6.261895474176652E-4i           3.408572370629662E-7+4.0594915132541895E-4i          7.422760834881315E-8+8.84025078780988E-5i            4.7653321931112915E-8+5.675345415440694E-5i           -3.795245266334333E-15-4.070806782355894E-12i
111.93605692841699                                1.9842072814227534-0.0018695850732306646i         1.9963403707545566-0.0018810172663702785i         2.0053487645611576-0.0018895052699883059i         2.0058489340888084-0.0018899765460950264i         2.0060201907072863-0.0018901379096886587i         6.615352857831595E-7+7.020935836145661E-4i           4.290423130726657E-7+4.553464268933218E-4i           9.346582457398684E-8+9.919611171142854E-5i           6.000519457855536E-8+6.368404720717557E-5i            -4.060366422228643E-15-4.2871133710994595E-12i
125.59432157547896                                1.9788084379193356-0.002092348863929797i          1.9940733397274661-0.002108489636708084i          2.0054122176161746-0.0021204791187598455i         2.0060419567080747-0.002121144991134068i          2.006257580736776-0.0021213729872768794i          8.322115714837312E-7+7.870522940332615E-4i           5.400189057263116E-7+5.107150090433161E-4i           1.176963091200786E-7+1.1130956876233851E-4i          7.556301727818798E-8+7.146262215527928E-5i            -5.548247350743139E-15-5.565937191285866E-12i
140.91914656322274                                1.9720185902030265-0.002340087979290783i          1.9912205130099134-0.0023628738624045876i         2.0054921167557627-0.002379809203940058i          2.00628501111349-0.0023807500888602773i           2.0065565048693514-0.0023810722558404492i         1.0467226478808706E-6+8.820853779477368E-4i          6.796638439748825E-7+5.727604045577642E-4i           1.4821813298040298E-7+1.2490509607216105E-4i         9.516142353105195E-8+8.019360728328504E-5i            -6.776667636932629E-15-5.7509771291225266E-12i
158.11388300841895                                1.9634815964034587-0.0026149440333504445i         1.9876309122912246-0.0026471058343455504i         2.005592729887583-0.0026710271931115765i          2.0065910830141798-0.002672356789250281i          2.006932935606821-0.00267281206491885i            1.3162096555307233E-6+9.883020403101646E-4i          8.553613326478932E-7+6.422646973507836E-4i           1.86670520396392E-7+1.4016519171346307E-4i           1.1985382249813737E-7+8.999457424979982E-5i           3.2599557881534715E-16+2.906873514390802E-13i
177.40669461678763                                1.952751447132098-0.002918949037940394i           1.9831148756543144-0.002964335916743051i          2.0057194356562715-0.002998124937191825i          2.0069765386526894-0.0030000040394107994i         2.0074070040652408-0.0030006474938566387i         1.6545764318751313E-6+0.0011068976674317652i         1.0763847130743647E-6+7.200919863282457E-4i          2.351230882962415E-7+1.5729529550805526E-4i          1.509705587055335E-7+1.0099798712540087E-4i           9.873617210777747E-17+1.7283197172214446E-14i
199.05358527674863                                1.9392703613448783-0.003253862363396504i          1.9774342795505155-0.0033178968216335987i         2.005879014314812-0.003365623664456223i           2.0074620110090327-0.0033682797424633214i         2.0080040910325785-0.003369189287526733i          2.0791342660409898E-6+0.0012391443475389496i         1.354372561683429E-6+8.071928927395214E-4i           2.96190890052209E-7+1.7652689362137916E-4i           1.9019316704132275E-7+1.133532802447823E-4i           1.9082767670441545E-16+2.828336617575902E-13i
223.34179607548148                                1.922342002278156-0.0036209264689746807i          1.9702903682717199-0.0037112420804368265i         2.006080015943586-0.0037786555178681825i          2.008073521510202-0.003782410488133237i           2.0087562074911585-0.003783696396535899i          2.611371799068427E-6+0.0013863722023149316i          1.7039198819135745E-6+9.046073691847075E-4i          3.7318119048425375E-7+1.9812108434249758E-4i         2.396491983769186E-7+1.272292394553398E-4i            5.971286262169203E-16+5.084628095505741E-13i
250.5936168136362                                 1.9010990046065295-0.004020509979442712i          1.961308651490161-0.0041478434143174i             2.0063332269462992-0.004243062944714771i          2.0088439022179063-0.0042483726076701i            2.0097037457489235-0.004250191034527468i          3.2778596109582295E-6+0.0015499372700058204i         2.1433102206917935E-6+0.0010134647002526852i         4.702816185015045E-7+2.2237276456123543E-4i          3.0203398497769557E-7+1.4281683482432513E-4i          1.0491206995639037E-15+4.1056081436135377E-13i
281.1706625951745                                 1.8744640551799094-0.004451591896359165i          1.9500202386791488-0.004631027327801781i          2.00665226245304-0.004765520521504656i            2.0098146023712546-0.004773030639753944i          2.0108977043509606-0.004775602856578836i          4.1112866584965184E-6+0.0017311699895756361i         2.6954177412003597E-6+0.001134979083446484i          5.928023038721954E-7+2.4961556222080974E-4i          3.807676407433822E-7+1.6033258996966723E-4i           4.971490982010659E-16+1.6902830899937253E-13i
315.47867224009644                                1.841103976387773-0.004911024776435672i           1.935838888414827-0.005163723954514769i           2.0070543197827053-0.00535368647207201i           2.0110379879240416-0.005364312646972849i          2.0124025212085215-0.0053679524504967515i         5.151604128642483E-6+0.0019312960644981409i          3.3888117887059626E-6+0.0012704384877921674i         7.474891370022916E-7+2.8022771024012217E-4i          4.801986512170975E-7+1.8002264090447023E-4i           1.3029195007394368E-15+4.631718898748833E-13i
353.97289219206897                                1.7993767452031062-0.0053924929872222775i         1.9180329797789126-0.005748089924385532i          2.0075611395784656-0.006016393920530913i          2.0125802770910757-0.006031435608588045i          2.014299691905096-0.006036588466266948i           6.447212874721276E-6+0.002151318472690447i           4.2590981379026465E-6+0.0014211835248884117i         9.429316323236514E-7+3.14639122261065E-4i            6.058696916203456E-7+2.0216768792250548E-4i           1.6592475772210642E-15+4.838462285057687E-13i
397.16411736214064                                1.7472723277513718-0.005885054774864249i          1.895691588552653-0.006384951323276832i           2.0082002357089253-0.006763895999598764i          2.0145253006362522-0.006785199692626189i          2.0166924071061496-0.00679249880678911i           8.056062924887073E-6+0.0023918454874702426i          5.350529218819901E-6+0.0015885717415997868i          1.1900980501658496E-6+3.533400254831882E-4i          7.648675501395325E-7+2.2708912061411145E-4i           1.7123929563751684E-15+5.514575119791762E-13i
445.6254690668729                                 1.6823499112228604-0.0063711239164893655i         1.86768392254586-0.007072990896288331i            2.009006475550337-0.007608184843519158i           2.0169793393644384-0.007638378385634674i          2.019711522431342-0.007648725268062538i           1.0046420821430173E-5+0.002652844687438674i          6.717906852911645E-6+0.0017739209363653464i          1.5030439278300085E-6+3.968916431653332E-4i          9.662882721013301E-7+2.551567076547512E-4i            2.035833990845655E-15+5.10803434189703E-13i
499.99999999999994                                1.6016770119662074-0.006823710296931534i          1.83261161811608-0.007807573273696294i            2.010024120639192-0.008563413245031508i           2.0200773803216006-0.008606243684843693i          2.0235232854152887-0.00862092445858039i           1.2496877509396447E-5+0.0029332971214806065i         8.428779882712163E-6+0.0019784226688440865i          1.8998603935768377E-6+4.459396163264058E-4i          1.22186257351868E-6+2.867984032302207E-4i             2.851645529174702E-15+7.359208463706118E-13i
561.0092271509814                                 1.5017806784558596-0.00720270482856675i           1.7887539541506563-0.008579060007404861i          2.0113094780677194-0.009646460691517826i          2.0239912603440744-0.00970728390920821i           2.028339403392041-0.00972813807981233i            1.5494878456882432E-5+0.003230719475353082i          1.0565896174131286E-5+0.002203013915374602i          2.4039594976916927E-6+5.012311434440664E-4i          1.546807974086864E-6+3.225130582625584E-4i            4.8858380273355845E-15+9.430624512296957E-13i
629.4627058970837                                 1.3786285062235721-0.007449976890760599i          1.734007106410416-0.00937040875670847i            2.0129343714712236-0.010877705051484726i          2.0289403504448646-0.01096419983283632i           2.034430268115783-0.01099386682348815i            1.913260479976708E-5+0.003540516396868644i           1.3229788485801934E-5+0.002448190667659592i          3.045841823376054E-6+5.636372440069868E-4i           1.9610076232718694E-6+3.6288717417110007E-4i          5.7745138045330805E-15+1.108874787901487E-12i
706.2687723113777                                 1.2276686621601416-0.007483080880900655i          1.665820462612526-0.010153773018012995i           2.014990726713107-0.012282090976246727i           2.0352057086840896-0.012405308539662417i          2.042142497781942-0.012447590756475318i           2.3498345207807897E-5+0.0038551225728560225i         1.6541231065696887E-5+0.0027137420897744577i         3.8655678638038545E-6+6.341821937415455E-4i          2.490669347226028E-6+4.0861736390626505E-4i           8.35443960943329E-15+1.3287641693915818E-12i
792.4465962305569                                 1.0439750653284607-0.007187499189866507i          1.5811362282657122-0.010885714930459797i          2.0175966976609763-0.013890632636209628i          2.0431490449278424-0.01406655395353155i           2.0519224811737176-0.014126956798158482i          2.8660478794910684E-5+0.004162899630196694i          2.064305693137347E-5+0.002998377728164628i           4.916278283843308E-6+7.140831587763695E-4i           3.1707058820520793E-6+4.605409907828043E-4i           1.1292574824365462E-14+1.6046254892911175E-12i
889.1397050194613                                 0.8225677790429221-0.0064076863800470755i         1.4763437806299144-0.011500508139248699i          2.0209049585520193-0.015742562286942246i          2.0532384858045-0.01599443586693157i              2.0643484232350016-0.01608098069986079i           3.4639735760533714E-5+0.004446775468378901i          2.570040559813394E-5+0.0032992136985874805i          6.269313240839985E-6+8.048045790894946E-4i           4.0482232728949185E-6+5.196787115335853E-4i           1.596844150513653E-14+1.98598469893933E-12i
997.6311574844393                                 0.5590102710546013-0.004937910303531961i          1.3472684688367162-0.011900837269236797i          2.025114107829491-0.017888456536408002i           2.0660841537124517-0.01825035756817624i           2.080174689237012-0.01837482360756202i            4.136344047765868E-5+0.004682668777732489i           3.1897764328654936E-5+0.003611078041440904i          8.02182967964432E-6+9.081342720536946E-4i            5.187754499370877E-6+5.872946502258564E-4i            2.2566374566562154E-14+2.5094347437651415E-12i
1119.36056928417                                  0.2504227303492199-0.0025153310327619594i         1.1892271383881896-0.011944999052073893i          2.030484646032237-0.020394873601183253i           2.082488248591572-0.020917215350024495i           2.1003943680320045-0.021097070461654592i          4.859302772835416E-5+0.004837854471548425i           3.942998527878532E-5+0.00392559332881938i            1.0308425185832387E-5+0.0010262921689983967i         6.679315806812102E-6+6.649831941565149E-4i            3.260296523610749E-14+3.212669201429647E-12i
1255.943215754791                                 -0.10291378415317569+0.0011795537425680414i       0.997201183928513-0.011429499508344692i           2.0373618570200405-0.023351382566031934i          2.1035171374069592-0.02410962649592346i           2.1263295510607194-0.024371092762530962i          5.581367776638621E-5+0.00486963434814027i            4.84824943635155E-5+0.0042300015651352925i           1.331937646674255E-5+0.0011620892037505581i          8.651163638066038E-6+7.547968847323531E-4i            4.956357896846515E-14+4.3016235069647905E-12i
1409.1914656322274                                -0.49517468964062245+0.006505214331106583i        0.7662040037444565-0.010065784748767983i          2.0462094207096224-0.026881487798180923i          2.13060784775091-0.02799024786141491i             2.1597650443655487-0.02837329214666394i           6.207372661512271E-5+0.004725031674206777i           5.919263167841123E-5+0.004505722359573107i           1.733015482938252E-5+0.0013191653058967092i          1.1290637733546092E-5+8.594393833277376E-4i           7.573620721561312E-14+5.773221252097685E-12i
1581.1388300841895                                -0.9116978631922975+0.01380626599787869i          0.49195412272035394-0.007449891165473829i         2.0576602737752405-0.031160111044714386i          2.165730173745385-0.03279666403967624i            2.203152452283062-0.03336336709053542i            6.576473862743333E-5+0.004342780558814744i           7.157858536070638E-5+0.004726697263312443i           2.275087878552119E-5+0.0015023559897866252i          1.4879434907546514E-5+9.82564601953618E-4i            1.1781264008812095E-13+7.763458008254298E-12i
1774.0669461678763                                -1.3248538199887927+0.02329496670690678i          0.1720060768684835-0.0030243909838344493i         2.0725962606148665-0.03644255805316364i           2.211642153425875-0.03888740856124854i            2.259932675108915-0.03973650308742013i            6.434775455151846E-5+0.003659648197639875i           8.541314124596916E-5+0.004857698434167032i           3.0212519879065342E-5+0.001718275529224893i          1.9855747916549892E-5+0.0011292552192279223i          1.8759915006070805E-13+1.0643813595396466E-11i
1990.5358527674864                                -1.6896619655222793+0.03481805112947023i          -0.19246987872572777+0.003966134217724996i        2.0922779747368443-0.043114565897129024i          2.272309306476955-0.04682438496016881i            2.335066517519572-0.04811759262362821i            5.4071513723227496E-5+0.002624000645207686i          1.0000362455870017E-4+0.004853009110041982i          4.07242622224344E-5+0.0019762805240508656i           2.692895319647353E-5+0.0013068171854061917i           3.073905077779282E-13+1.4911941880726423E-11i
2233.417960754817                                 -1.9407424954393815+0.04743680601605555i          -0.5940524606821401+0.014520190697905132i         2.118566645658665-0.05178329143646835i            2.3536261190438297-0.057528757712051314i          2.43595013692882-0.05954097130896372i             2.9821740653454266E-5+0.001220071797577122i          1.138113814870117E-4+0.004656270198527039i           5.5976890042767685E-5+0.0022901358504375784i         3.7303311106140366E-5+0.0015261592782116148i          5.167967631831852E-13+2.1134021473143853E-11i
2505.936168136362                                 -1.993899664921189+0.05872828451366945i           -1.0154240564656078+0.02990828100104836i          2.154325314531043-0.06345345716394242i            2.4647303856960683-0.07259612227296187i           2.574086704675228-0.07581710122871493i            -1.4563837080572126E-5-4.944613963374159E-4i         1.237917326856985E-4+0.004202886262033077i           7.896784642537177E-5+0.002681058498493434i           5.3144502748782714E-5+0.0018043232428465446i          9.018863239456949E-13+3.0630238264869795E-11i
2811.706625951745                                 -1.7579891989694045+0.06372251712952827i          -1.424761292392301+0.05164387360365676i           2.2041957898000217-0.07989633727771989i           2.620570156319662-0.09498881997603241i            2.7683585327434757-0.10034576241423332i           -8.479787506956905E-5-0.002339421317764502i          1.2422754283532492E-4+0.0034272137636812082i         1.153998419161949E-4+0.0031836734243660555i          7.863693764818078E-5+0.0021694512263358617i           1.646251937494438E-12+4.54379651999859E-11i
3154.7867224009647                                -1.1648583905949772+0.05348031025882564i          -1.7706670425199962+0.08129384370634171i          2.2762386986126013-0.10450535789428504i           2.847375855660745-0.1307270775410079i             3.0520174498929684-0.14012246435098125i           -1.8202988322472402E-4-0.003964806910026695i         1.0457308489057328E-4+0.0022777138638126865i         1.7715970322173836E-4+0.0038587282071792413i         1.2264882123075332E-4+0.0026714227753477753i          3.1804878102524843E-12+6.926263080197507E-11i
3539.72892192069                                  -0.22434750376678717+0.013594420751987366i        -1.9779285418379942+0.11985328330568211i          2.3858038279594997-0.1445686312935999i            3.1957363652419217-0.19364678138409405i           3.4894250974070564-0.21144295453877446i           -2.932861138101438E-4-0.004840076483321906i          4.50834216509538E-5+7.440078726187287E-4i            2.922831575513669E-4+0.0048235240929821975i          2.0647181548275517E-4+0.0034073868123168016i          6.672327759065285E-12+1.1010239150057817E-10i
3971.6411736214104                                0.897731673421522-0.07646713753110675i            -1.9460330061342013+0.1657595266717256i           2.566146123319605-0.21857962605171757i            3.77711292389869-0.3217275598448285i              4.222914275660858-0.3597001023575171i             -3.7006303008809793E-4-0.004344576284431148i         -9.369720909524234E-5-0.0011000143713661963i         5.397824093980146E-4+0.006337098119955242i           3.912614223014233E-4+0.004593447249313678i            1.5823685748805474E-11+1.8578007330877325E-10i
4456.2546906687285                                1.8019505267171498-0.24059671234322924i           -1.5493023504247414+0.20686308642434484i          2.9044112828932476-0.38779743803666883i           4.891530454249073-0.6531178932573528i             5.637249070123296-0.7526863567306789i             -2.7260343351524535E-4-0.0020416649095135295i        -4.044529217518326E-4-0.0030291526297342736i         0.0012149613782618104+0.009099460669901555i          9.102737541306109E-4+0.006817500846326936i            4.628489429256961E-11+3.466465218359932E-10i
4999.999999999999                                 1.7924873803176913-0.47745901653821293i           -0.6032459247984454+0.16068464646697028i          3.7024586557157737-0.9862118180040942i            7.648769546414424-2.0373777592947717i             9.166371259496561-2.441616370347006i              4.771186402274664E-4+0.0017912098116584154i          -0.0011936229483636407-0.004481126200113574i         0.004188639407810935+0.015725084558921028i           0.0032750413543488474+0.012295234136188198i           2.102916206045696E-10+7.894742552893341E-10i
5610.0922715098195                                -0.385570280751749+0.7166770976204239i            0.8019103959333805-1.4905474900020081i            3.5746249522696476-6.644318713595051i             10.437142321328295-19.399993277068546i            13.159842670126674-24.46080080809376i             0.003932248597131143+0.002115538791364219i           -0.002304508373601378-0.0012398190830248694i         0.043894257255809144+0.02361498808400076i            0.03627903065384099+0.01951801739342824i              2.9557194176289047E-9+1.5901488617431136E-9i
6294.6270589708365                                0.3879151813903811+0.1795202200660716i            0.10980931099633286+0.0508177910391677i           -1.2044727221071811-0.5574084983515738i           -7.635434578210625-3.5335429721209777i            -10.291002508059233-4.762492457496559i            -0.002005631892468296+0.004333857187900899i          0.0020469378344221824-0.004423113018171155i          0.00875048898904214-0.018908440263075286i            0.007779668582111472-0.016810648961949254i            8.084299976113004E-10-1.7468843536647172E-9i
7062.687723113769                                 -1.6207485763067304-0.3721341370612387i           1.5349050726967344+0.35242388765693927i           0.30134036967986527+0.06918944896944851i          -3.4362860085390587-0.788994425956345i            -5.061278245624683-1.1621036035510703i            -6.117577058971305E-4+0.0026643747670744913i         6.765480000284641E-4-0.0029465568073625365i          0.0021229331616600955-0.009245968014871216i          0.0020803330755727115-0.009060400291611096i           2.8258842430237186E-10-1.2071355530129037E-9i
7924.4659623055695                                -1.6604709970050902-0.27336540754326205i          1.9669277868038135+0.32381779122529425i           0.8232190092918388+0.13552757634247617i           -1.9428284304120333-0.31985032633337396i          -3.2285653307131326-0.5315228352755715i           4.3214846176439905E-4-0.002624947158502648i          -8.544357461602593E-5+5.190004310171751E-4i          9.258159007155442E-4-0.0056235735191964425i          0.0010360092049282506-0.00629290488350215i            1.790624318913308E-10-1.0857036427575778E-9i
8891.397050194613                                 0.5345044037941545+0.07256595502349249i           1.1783975165519596+0.15998288136740743i           1.096915380602189+0.14892061569958756i            -1.206716274840237-0.16382753633647498i           -2.3755941957163684-0.3225180210150037i           6.34949766623737E-4-0.004676896266010622i            -5.295042680103807E-4+0.0039002082659064805i         5.029431617611621E-4-0.0037045653376162786i          6.787621066153485E-4-0.004999606024997012i            1.5293843153534702E-10-1.1252594483035331E-9i
9976.311574844403                                 1.9791395331177208+0.23841803104017548i           -0.5453605554573903-0.06569714237167511i          1.289944131456683+0.1553937901086807i             -0.7652566308544495-0.09218704113464486i          -1.9369686599210196-0.23333794510405392i          -6.290954140594359E-5+5.222189708972758E-4i          -5.627336082953146E-4+0.004671324686851328i          2.936163319603213E-4-0.0024373477587428557i          5.24480598643175E-4-0.004353781269793418i             1.5586423352671509E-10-1.2931444212520137E-9i
11193.605692841687                                -0.21376499818125902-0.023784542037197782i        -1.9167751792362726-0.2132701649497581i           1.4756514582063918+0.16418849534283814i           -0.45540653832216854-0.05067085129629367i         -1.74506064635783-0.1941643370455585i             -5.402869763620343E-4+0.004855854513665166i          -1.482949861320979E-4+0.0013328075552623809i         1.6050693558816994E-4-0.001442563423730281i          4.5944634048900723E-4-0.004129294260983385i           1.8282544045086346E-10-1.6427684616375548E-9i
12559.43215754791                                 -1.907903630049409-0.19804942851158772i           -1.3022338974143362-0.13517871337225004i          1.7474376545795571+0.181393250049359i             -0.18794911080446444-0.019510109562000166i        -1.8011617346240087-0.1869700939129897i           1.475865619356278E-4-0.001421747760426989i           3.834814879755485E-4-0.003694238405126119i           5.198541451880745E-5-5.007961153878191E-4i           4.5684389759614863E-4-0.004400969756277006i           2.48286987235174E-10-2.3917303726401915E-9i
14091.914656322273                                1.307588273539914+0.11030558602383754i            1.1321889044310152+0.09704828933880914i           2.924811011428058+0.25189907382301585i            0.2149821295880984+0.018515569344253486i          -2.889983909842265-0.24890309838819802i           3.2030941404661623E-4-0.003734271043464336i          3.5108447757422484E-4-0.00407857429626738i           -6.56136435549147E-5+7.615308380956398E-4i           6.116251826659429E-4-0.00710150733770177i             4.662883230067947E-10-5.414412494353107E-9i
15811.388300841894                                -0.6968799432586281+0.6013585389123528i           2.6696205654635703-0.5653907263059467i            2.0155033650498115-0.7646890926633781i            0.6387426741486039-0.22336269145822926i           -2.3504752612861233+0.8214762450591597i           3.780693478529222E-4+0.0041009350388281724i          -5.993490369544088E-4+0.002943097000318885i          6.030152518035707E-4+0.0028303892586755384i          -0.001955410055846942-0.00559212784760193i            -2.171968806721372E-9-6.215829736192611E-9i
