% Model:              Three_mic_technique_surogate_test2remove.mph
% Version:            COMSOL 6.2.0.290
% Date:               Mar 19 2026, 10:17
% Table:              Table 12 - Point Evaluation 2
% freq (Hz)                                       Total acoustic pressure (Pa), Point: 7            Total acoustic pressure (Pa), Point: 8            Total acoustic pressure (Pa), Point: 9            Total acoustic pressure (Pa), Point: 10           Total acoustic pressure (Pa), Point: 11           Total acoustic velocity, z-component (m/s), Point: 7 Total acoustic velocity, z-component (m/s), Point: 8 Total acoustic velocity, z-component (m/s), Point: 9 Total acoustic velocity, z-component (m/s), Point: 10 Total acoustic velocity, z-component (m/s), Point: 11
49.99999999999999                                 2.0010301617189175+7.384054174824464E-4i          2.0034198139050288+7.392872294196389E-4i          2.005103967684902+7.399087034479134E-4i           0.011720605383960551+4.325051505076725E-6i        0.011720872268788709+4.325149988951048E-6i        -1.1463220954079134E-7+3.1064560606045157E-4i        -7.372321591281124E-8+1.9978507063303562E-4i         -1.3938688812421222E-10+3.7772930459535526E-7i       -1.1622123319564007E-10+3.149519051786156E-7i         -2.1905304028949502E-17+5.40409976977729E-14i
56.10092271509817                                 1.9999758400852325+8.280677102427667E-4i          2.0029838609751867+8.293131478881328E-4i          2.0051040081492015+8.301909712003614E-4i          0.01172179378223122+4.853278096662587E-6i         0.011722129807693178+4.8534172242606945E-6i       -1.4428804082190737E-7+3.4848896192240353E-4i        -9.280527246870176E-8+2.2414628689155247E-4i         -1.754948383398859E-10+4.2386079344688066E-7i        -1.4633073854221245E-10+3.5342271904677127E-7i        -2.740892937006536E-17+6.503023658229119E-14i
62.94627058970836                                 1.9986487917761948+9.284899425311316E-4i          2.002435074653772+9.302488938341961E-4i           2.005104060071892+9.314887945754293E-4i           0.011723290245099412+5.4461579906600995E-6i       0.011723713335334627+5.446354540964414E-6i        -1.8160760549284002E-7+3.9092469390800697E-4i        -1.1682415097146406E-7+2.514733194197164E-4i         -2.2096198686431508E-10+4.7563833625061475E-7i       -1.8424614823940053E-10+3.9660455612784184E-7i        -3.537357093685384E-17+7.70665728112919E-14i
70.6268772311377                                  1.9969785529148403+0.001040911108092798i          2.0017442639832126+0.0010433952018958418i         2.005104124618995+0.0010451465057612517i          0.011725174696430233+6.1116653309677306E-6i       0.01172570742939859+6.111943014302746E-6i         -2.28566609220194E-7+4.3850276287733006E-4i          -1.4705583402980245E-7+2.821252880954202E-4i         -2.7821758253353864E-10+5.33757917399477E-7i         -2.3199443131144278E-10+4.450792195334502E-7i         -4.2461046611306886E-17+7.979734372453956E-14i
79.24465962305565                                 1.9948765080529238+0.0011666907541939716i         2.0008746985144246+0.0011701987578087193i         2.0051042066855085+0.0011726723585856955i         0.011727547951365411+6.858781339493516E-6i        0.01172821877134415+6.859173664263478E-6i         -2.8764724730233034E-7+4.918359539403766E-4i         -1.8510533399100005E-7+3.1650399255677905E-4i        -3.503233181148491E-10+5.990034237278908E-7i         -2.9213077382701833E-10+4.995023880575289E-7i         -5.613015373602115E-17+9.842477731869735E-14i
88.91397050194612                                 1.9922312363767511+0.001307310642293948i          1.999780158726215+0.0013122642778253724i          2.0051043094750547+0.0013157580082778268i         0.011730537054768913+7.697628496570743E-6i        0.011731381803200566+7.69818282409808E-6i         -3.6196624311019537E-7+5.516057818510751E-4i         -2.3299100292800996E-7+3.5505865105180074E-4i        -4.4113890781835073E-10+6.722585139164444E-7i        -3.6787718582060737E-10+5.606138256394316E-7i         -7.306236625586855E-17+1.0820841207647211E-13i
99.76311574844398                                 1.9889026953055229+0.0014643729175632199i         1.9984024985745783+0.0014713673552255119i         2.0051044393274116+0.0014763018050419166i         0.011734302295781596+8.63963558226463E-6i         0.011735366145483437+8.640418864773167E-6i        -4.5543466635776663E-7+6.185683909946611E-4i         -2.9325043830757064E-7+3.9829102223009846E-4i        -5.555321702277972E-10+7.54520531159045E-7i          -4.6329852644805637E-10+6.2924933705601E-7i           -9.156176724669354E-17+1.2378570715177224E-13i
111.93605692841699                                1.984714937648439+0.0016395898820106489i          1.996668576288678+0.0016494648854248767i          2.005104602857583+0.0016564339586931025i          0.01173904590859621+9.697725623862233E-6i         0.011740385809897046+9.69883252771794E-6i         -5.729562193431426E-7+6.93560159332598E-4i           -3.690729617988705E-7+4.467608803908306E-4i          -6.996451989447885E-10+8.469168354696273E-7i         -5.835257791476228E-10+7.063548893737372E-7i          -1.1494970317411328E-16+1.3565832651500107E-13i
125.59432157547896                                1.979447025631904+0.0018347613920068403i          1.9944864094414054+0.0018487014889015075i         2.0051048091809545+0.0018585437477000681i         0.011745023232841762+1.088653291141758E-5i        0.011746711010748733+1.0888097322944666E-5i       -7.206721565911824E-7+7.775025550466481E-4i          -4.644649912340265E-7+5.010917756177036E-4i          -8.812319339669976E-10+9.507241330923909E-7i         -7.350396969141559E-10+7.930034647054479E-7i          -1.429042905189725E-16+1.5272047205275018E-13i
140.91914656322274                                1.9728217105840746+0.0020517375334719013i         1.9917403519562051+0.0020714129506600966i         2.005105069287064+0.0020853122767138187i          0.011752556932518497+1.2222676821057025E-5i       0.011754683213911269+1.222488815689174E-5i        -9.062635300642943E-7+8.714055662293231E-4i          -5.844568720779295E-7+5.619769512687337E-4i          -1.1100888486967686E-9+1.067391587986736E-6i         -9.260333546745734E-10+8.904154042181939E-7i          -1.7968976227130194E-16+1.7290931155913479E-13i
158.11388300841895                                1.9644913760986376+0.002292355226404886i          1.9882850578072235+0.002320119957959308i          2.005105397749244+0.0023397475290930963i          0.011762054480012113+1.3725082949534001E-5i       0.01176473368280915+1.3728209297970014E-5i        -1.1393203598174676E-6+9.763687226424647E-4i         -7.353600056350505E-7+6.301852215500827E-4i          -1.3986041132474817E-9+1.1985689154275736E-6i        -1.1668755296858982E-9+9.999832862131405E-7i          -2.69284199602069E-16+2.314323249634407E-13i
177.40669461678763                                1.9540206428080975+0.002558339536085658i          1.983937931604085+0.0025975093320451973i          2.0051058124314824+0.0026252237918189224i         0.01177403391332151+1.541538295051484E-5i         0.011777410597379558+1.5419803939807137E-5i       -1.4317893161358857E-6+0.0010935782736800073i        -9.250859229662646E-7+7.065664896519767E-4i          -1.7624610567940462E-9+1.3461408224463412E-6i        -1.4707060089428801E-9+1.1233027736940369E-6i         -3.427805773863722E-16+2.613953850822644E-13i
199.05358527674863                                1.9408649513963148+0.002851155244237298i          1.9784697097935369+0.0029063971167143272i         2.005106336699939+0.0029455266597500003i          0.011789150007800982+1.731841100304012E-5i        0.011793406986401321+1.7324664558638546E-5i       -1.7985108497697714E-6+0.0012242984664044985i        -1.163540940866545E-6+7.920564233589833E-4i          -2.221543733818381E-9+1.5122699365402161E-6i         -1.8542046435935469E-9+1.262211451427241E-6i          -4.350159377084091E-16+2.945206110175413E-13i
223.34179607548148                                1.9243443547424148+0.0031717865425980704i         1.971592731791017+0.0032496633426490444i          2.005107000021538+0.003304902990872804i           0.011808235543340826+1.9462838124697802E-5i       0.011813604275935587+1.947168709904652E-5i        -2.25785295878064E-6+0.0013698540067369265i          -1.4631113833988093E-6+8.876795723236641E-4i         -2.801108045206329E-9+1.6994511977391573E-6i         -2.3385901946516615E-9+1.4188384900938537E-6i         -5.470375209061053E-16+3.3126962966265495E-13i
250.5936168136362                                 1.9036117184060906+0.0035204159113938556i         1.9629463829417317+0.003630145597751692i          2.0051078405203717+0.0037081162601102988i         0.011832351208921016+2.18819821191009E-5i         0.011839125177938448+2.1894509457606805E-5i       -2.8324422010452077E-6+0.0015315995911411358i        -1.8392559729315966E-6+9.945498763786428E-4i         -3.5333059548831963E-9+1.9105818098722334E-6i        -2.9509270498437375E-9+1.5956692156849624E-6i         -6.898670885357683E-16+3.721245008678052E-13i
281.1706625951745                                 1.8776145628190941+0.003895964743929285i          1.9520790943496946+0.004050475271668831i          2.005108907161599+0.004160509719615944i           0.011862852022446664+2.4614878007610046E-5i       0.011871404044901772+2.4632623064958196E-5i       -3.5499806568390323E-6+0.0017108707621667082i        -2.311223418034748E-6+0.0011138670425755437i         -4.459186833977473E-9+2.1490528430160577E-6i         -3.725851509028799E-9+1.7956304758259367E-6i          -8.713780419037881E-16+4.192684567703114E-13i
315.47867224009644                                1.8450499731197814+0.004295441418586566i          1.938426199534636+0.004512829649009197i           2.0051102637092986+0.004668076117537199i          0.011901475510314325+2.7707699969764297E-5i       0.011912280293367725+2.7732854471558845E-5i       -4.4441111050637006E-6+0.0019089081491371314i        -2.9029101845571447E-6+0.0012469066169738638i        -5.631348796922158E-9+2.4188712845939046E-6i         -4.707875249339582E-9+2.0222054536009657E-6i          -1.0990294617716096E-15+4.723168382455262E-13i
353.97289219206897                                1.8043124496567466+0.0047130289038786665i         1.9212828717576858+0.005018566358542328i          2.0051119933560715+0.0052375356814788375i         0.011950460175879979+3.121569358153465E-5i        0.011964123949530609+3.125138460641307E-5i        -5.555252835428524E-6+0.0021267442298676218i         -3.643869156119798E-6+0.0013950006613373575i         -7.117493467176443E-9+2.724825639489834E-6i          -5.9544994135213394E-9+2.2795908065488935E-6i         -1.3910960938250733E-15+5.322878906711817E-13i
397.16411736214064                                1.7534354659815141+0.005138824109367695i          1.899771338752411+0.005567693262984706i           2.0051142059791855+0.005876423456091281i          0.012012706985143062+3.520585156104531E-5i        0.012030006829366436+3.525655251866544E-5i        -6.931261622958679E-6+0.0023650379624927578i         -4.570467816400929E-6+0.001559504689464566i          -9.005259488281337E-9+3.072714868871623E-6i          -7.540489080975192E-9+2.5729156329954114E-6i          -1.7615405062058612E-15+6.00773867629133E-13i
445.6254690668729                                 1.6900291086135433+0.005557120271097018i          1.872801627538805+0.006158109310303926i           2.0051170480020173+0.0065931862617663855i         0.012092003200518644+3.976068601996881E-5i        0.012113939886250107+3.983281779658377E-5i        -8.627655951926894E-6+0.0026238378803651644i         -5.727170864310421E-6+0.0017417448057788058i         -1.1408904017818297E-8+3.4696711177319467E-6i        -9.563844427995727E-9+2.908552366890283E-6i           -2.2333700172824273E-15+6.801040886264793E-13i
499.99999999999994                                1.611218925102247+0.005944107625016969i           1.839025315675292+0.006784530871380992i           2.0051207172050516+0.007397289907310869i          0.012193338878633109+4.498365701844684E-5i        0.01222120893377716+4.508647520583293E-5i         -1.070697832494781E-5+0.002902248558997461i          -7.167880616517905E-6+0.0019429366819532143i         -1.4478720855760484E-8+3.924624222432211E-6i         -1.2154314625968398E-8+3.294567113803482E-6i          -2.8446641286629186E-15+7.714085285749725E-13i
561.0092271509814                                 1.5135956175142875+0.006264865497094142i          1.7967822715738364+0.00743699262360357i           2.0051254847495072+0.008299338030929363i          0.012323364862557992+5.1007167107859805E-5i       0.012358860638263854+5.115408631241514E-5i        -1.3236597624503838E-5+0.0031979691325308333i        -8.95719830935807E-6+0.002164064955191623i           -1.8414625482670647E-8+4.4489855347110184E-6i        -1.548582893543055E-8+3.7413863774681173E-6i          -3.629698270675334E-15+8.769063404169317E-13i
629.4627058970837                                 1.3931923705864164+0.006469547430923172i          1.744041352477911+0.008098779991477066i           2.005131729306239+0.009311201656375218i           0.012491073534218553+5.800462028595111E-5i        0.01253642517009761+5.821521903163175E-5i         -1.6283866308923055E-5+0.003506666820060719i         -1.1171350562930474E-5+0.002405707692476504i         -2.3486277475090257E-8+5.0576801904731215E-6i        -1.9795143574589507E-8+4.262808596825598E-6i          -4.645028473067053E-15+1.0005465292650148E-12i
706.2687723113777                                 1.2455175731920682+0.00648876104218702i           1.6783377895025617+0.008743620657624365i          2.005139990943617+0.010446159024983671i           0.012708842603608002+6.620913824490699E-5i        0.012767024669319286+6.651224880754453E-5i        -1.990699526787537E-5+0.0038211455468758495i         -1.3898337897758505E-5+0.0026677856457286084i        -3.0063825055714887E-8+5.77075054631287E-6i          -2.5410695425261977E-8+4.87758241790593E-6i           -5.973138127179038E-15+1.146388545114359E-12i
792.4465962305569                                 1.0656869194827452+0.006228373744416055i          1.596712976592544+0.009331939244912697i           2.0051510597208466+0.011719042897017015i          0.012994094274981835+7.594357915238374E-5i        0.01306913589428561+7.638215755844408E-5i         -2.4139270649912916E-5+0.004130274349548781i         -1.7236567213772498E-5+0.0029492102116671975i        -3.8666602354903996E-8+6.615930956745929E-6i         -3.279887374477025E-8+5.611951165713054E-6i           -7.726011641059859E-15+1.3223979639635333E-12i
889.1397050194613                                 0.8487218171447019+0.0055644395261737365i         1.4956672491968022+0.009805981528323161i          2.0051661264565954+0.013146388014292553i          0.013372046066253895+8.767059437744527E-5i        0.013469513674632415+8.830961724027083E-5i        -2.8963340492424525E-5+0.004417660841049787i         -2.1290780106692936E-5+0.003247397763698396i         -5.004358397324895E-8+7.632948252868272E-6i          -4.2641368440492274E-8+6.503917843414726E-6i          -1.0074558956915074E-14+1.5368633084584326E-12i
997.6311574844393                                 0.5901114593633973+0.004339801985163636i          1.3711439148589195+0.010083677557974093i          2.0051870515889334+0.01474656267206596i           0.013880504791532534+1.0208011949112159E-4i       0.01400828745466509+1.0301985977559756E-4i        -3.4271405823780496E-5+0.004660106291515115i         -2.6163422745956168E-5+0.0035576125527601327i        -6.531311552098556E-8+8.881053602313413E-6i          -5.597095431614463E-8+7.610738539930085E-6i           -1.3269210166842168E-14+1.8043084314285372E-12i
1119.36056928417                                  0.2867722761676203+0.0023654143052955438i         1.2185744997789416+0.010051300143563783i          2.005216872259562+0.016539847700112395i           0.014578739450023543+1.2025139699293322E-4i       0.014748396968150938+1.2165080149118285E-4i       -3.980670964685117E-5+0.00482598472956692i           -3.193864820273411E-5+0.0038720983025910156i         -8.622065696546645E-8+1.0453005325185737E-5i         -7.442434002048112E-8+9.022872823360382E-6i           -1.771613383456308E-14+2.147695087209812E-12i
1255.943215754791                                 -0.06142651039813705-5.681870172767899E-4i        1.0330323505487016+0.009555400127605671i          2.0052608280845376+0.01854837320852838i           0.015565172891156644+1.439756024737315E-4i        0.015794410785717503+1.460960199088608E-4i        -4.5082747900431906E-5+0.004873884694632046i         -3.8654823647886276E-5+0.004178965063604225i         -1.1565092076034297E-7+1.2502997353484424E-5i        -1.0074864110610878E-7+1.0891914952408028E-5i         -2.411391643368222E-14+2.6071433278902063E-12i
1409.1914656322274                                -0.4493882134733363-0.004660250400290471i         0.8095657305608815+0.008395365728096037i          2.0053286348715753+0.02079567681957424i           0.01701618067505205+1.7646134796481038E-4i        0.017333804937125722+1.797551779083315E-4i        -4.9281184071626103E-5+0.0047521864069151026i        -4.625965704397039E-5+0.004460822105521656i          -1.5874678151619224E-7+1.5307963738513826E-5i        -1.3991515813803478E-7+1.3492028920294106E-5i         -3.372147896573197E-14+3.251681523708899E-12i
1581.1388300841895                                -0.8636305088203676-0.010036229142328363i         0.5438126910243058+0.006319633560117761i          2.0054401886706095+0.023305169832529542i          0.0192827193867479+2.2408399546389345E-4i         0.019739783136229132+2.293955217642683E-4i        -5.114123334248456E-5+0.004400768198467308i          -5.453962092237684E-5+0.004693205344938514i          -2.256831701129746E-7+1.942033044620746E-5i          -2.0189436448125296E-7+1.73732727676435E-5i           -4.9075056184924784E-14+4.222895756946347E-12i
1774.0669461678763                                -1.278301510001101-0.01663164987021949i           0.23303504972844913+0.003031958549439046i         2.005642662081597+0.026094896134730833i           0.023178680833683765+3.0157180056556435E-4i       0.023878142433566674+3.106723139043832E-4i        -4.887822022617411E-5+0.0037567582652149128i         -6.301054022614951E-5+0.004842963426521411i          -3.398923010841635E-7+2.6123978269365977E-5i         -3.099134216715132E-7+2.3819814298045E-5i             -7.613767039548798E-14+5.8519186343863686E-12i
1990.5358527674864                                -1.6508985533222857-0.023993544572004727i         -0.12226756129702891-0.0017769911610845308i       2.006078444562682+0.029155596345789472i           0.03112436081021462+4.5234985838310554E-4i        0.032324232640357366+4.6978834830913214E-4i       -4.021528612650898E-5+0.0027670504350671594i         -7.073472556139545E-5+0.0048669698444582365i         -5.703386283566059E-7+3.9242689975393986E-5i         -5.329294592907098E-7+3.666871663593772E-5i           -1.3268355565272264E-13+9.129248278229977E-12i
2233.417960754817                                 -1.9191537653302857-0.030876706926792955i         -0.5160903805789201-0.008303228150089471i         2.0074518708961895+0.03229730975899693i           0.05499667025786827+8.848254450248911E-4i         0.05771798831216706+9.286079403497727E-4i         -2.2694236308180956E-5+0.0014105693567406027i        -7.580633209943359E-5+0.0047117721056936035i         -1.247791019894456E-6+7.755693697297345E-5i          -1.2034799084206107E-6+7.480276257597595E-5i          -3.046173578954179E-13+1.8933537373445453E-11i
2505.936168136362                                 -1.9993117989006206+0.007559661826977239i         -0.9711618050769453+0.0036720903284010943i        2.132888073361718-0.00806472991480134i            2.181421583779281-0.008248241491532764i           2.320892918926247-0.008775600926312731i           -1.3989368736283205E-6-3.6998334633134376E-4i        1.6132932578631944E-5+0.004266694581231018i          1.3013299589399999E-5+0.0034416417886945555i         1.3080578149072226E-5+0.003459435024058201i           3.3792969370660357E-12+8.93713952427383E-10i
2811.706625951745                                 -1.8112352999079826-0.03877485155956476i          -1.3418067135706844-0.028725345431145813i         2.001371291096503+0.042845278011421364i           -0.045005817078135335-9.634827647534265E-4i       -0.048760454097493834-0.00104386188662953i        4.474371644516624E-5-0.002090048842528719i           -7.755442971776975E-5+0.0036226911443565557i         1.7029597461121234E-6-7.954796663597408E-5i          1.8075830958474332E-6-8.44350902177893E-5i            4.789206043332023E-13-2.237128875007681E-11i
3154.7867224009647                                -1.2762863168885443-0.030234767600255286i         -1.7026175450678591-0.04033440745277053i          2.002804523145192+0.047445730798622805i           -0.019377850314034956-4.59054420354429E-4i        -0.02151960765211046-5.097918941937219E-4i        8.909920338903963E-5-0.003761101298043803i           -6.09668896915195E-5+0.0025735669048705325i          9.125947678177039E-7-3.852293763891625E-5i           1.041939747739041E-6-4.3982916997818065E-5i           2.8477294974122837E-13-1.2020869176861212E-11i
3539.72892192069                                  -0.3968480686841717-0.010500743446805042i         -1.946773619867833-0.05151235462633362i           2.0031866463872596+0.05300506431296277i           -0.011025209829846958-2.917311560302393E-4i       -0.012681788627311369-3.3556484764227343E-4i      1.2651835527588886E-4-0.004781425998574581i          -3.071736550709042E-5+0.00116088183860923i           6.590687636574884E-7-2.4907766145005792E-5i          8.315616118774073E-7-3.142667852878823E-5i            2.36977171573595E-13-8.955945119020683E-12i
3971.6411736214104                                0.6899623070722204+0.02043873320490454i           -1.9912841390783418-0.058987744523836934i         2.003291705726338+0.059343444279122685i           -0.006848890558486008-2.0288445964685575E-4i      -0.008319423707461639-2.464460147301154E-4i       1.3568624357094034E-4-0.004580439850003037i          1.6388103982419764E-5-5.532229064147299E-4i          5.353256205545747E-7-1.8071303217166487E-5i          7.781339562953788E-7-2.6267927646043495E-5i           2.0387026546653995E-14-6.881575326095026E-13i
4456.2546906687285                                1.6523642735780355+0.05484514035961174i           -1.7480493723512511-0.0580211142820238i           2.003272897342586+0.06649247300846274i            -0.004183279660687025-1.3885108229343452E-4i      -0.005635378635004738-1.870490347459185E-4i       9.164208623222174E-5-0.002760976200425235i           7.915054771469807E-5-0.0023846330256991365i          4.6508258430310834E-7-1.4011921861361839E-5i         8.431895406318139E-7-2.54034581306269E-5i             3.0718303944114207E-13-9.254717536507346E-12i
4999.999999999999                                 1.9952627671724115+0.0742217148388924i            -1.1546232625457828-0.04295079746506083i          2.00323170870317+0.07451815857505717i             -0.0017587569082897674-6.542394752317282E-5i      -0.0034658030420990126-1.2892430743734415E-4i     -1.664774656901823E-5+4.4753089489363106E-4i         1.4826025747453783E-4-0.003985601023252565i          4.106993397840615E-7-1.1040610180575645E-5i          1.1801468893638062E-6-3.172525616451367E-5i           4.1955627180888805E-13-1.1278712881187551E-11i
5610.0922715098195                                1.2919963200936861+0.05380764612593334i           -0.2278101566265601-0.00948758929180475i          1.9983034946413036+0.08322316744659931i           0.0034749252146295956+1.447199005428834E-4i       0.0044814241525473215+1.8663747205950834E-4i      -1.5535129806370352E-4+0.00373019803000382i          2.017902672531053E-4-0.004845263750049971i           4.748249023781669E-6-1.1401203425311779E-4i          -3.294682658212965E-7+7.910989296386863E-6i           -4.924216740341735E-13+1.1823742620615644E-11i
6294.6270589708365                                -0.3422440161608385-0.016060136361623584i         0.8656766357494607+0.04062271951176353i           2.0033771636201183+0.09401042517793269i           -0.006828609112157833-3.2043913533071793E-4i      -0.006790840047283457-3.1866678514975457E-4i      -2.2575629562892937E-4+0.004810902157365088i         2.0638361536240926E-4-0.004398067780028935i          -8.617247076927354E-7+1.83634910608503E-5i           -1.1566134229761617E-6+2.4647616618474267E-5i         -1.6001927233318202E-13+3.4100502051720067E-12i
7062.687723113769                                 -1.8285507310072566-0.096163602865541i            1.7627089501382351+0.09270099117329114i           2.0021809733349287+0.10529484300245556i           -0.003367152721527216-1.7707880896051007E-4i      -0.004466239952041731-2.348800755375746E-4i       -1.0472296110594615E-4+0.001991308137153692i         1.2168088090516458E-4-0.0023137614030256733i         -9.261491060326764E-9+1.7583556890213004E-7i         6.874256014310251E-8-1.3071017105661193E-6i           2.1346326623009413E-13-4.070637365201808E-12i
7924.4659623055695                                -1.5575690489510519-0.09192870243404512i          1.95675574465196+0.1154889739111353i              1.98351912936105+0.11706849002324256i             -0.01992142759984798-0.0011758439494831026i       -0.0025826982275615144-1.5242794280090647E-4i     1.8107263309100213E-4-0.0030679523838177767i         -6.0603883803984616E-5+0.0010268248544922454i        1.4722248998099995E-5-2.4942478819708414E-4i         -1.6176132028983804E-5+2.74057444918573E-4i           -5.852786350775744E-12+9.913107792917356E-11i
8891.397050194613                                 0.6695789697322488+0.04429649439369462i           1.0729840029990765+0.07098406480945271i           2.001565169742971+0.13241505124238356i            -0.003196540565546337-2.11469529703912E-4i        -0.0038730214248841595-2.5622265009152056E-4i     3.048425668882438E-4-0.004607952954839025i           -2.7238844628751165E-4+0.004117381080452636i         -6.676575477656932E-8+1.0092259858508011E-6i         -7.442205880492628E-7+1.1249524169582456E-5i          4.5224302121709993E-13-6.836013966280112E-12i
9976.311574844403                                 1.9760423856018237+0.14686889237872305i           -0.6349932785694822-0.04719573515999293i          2.0010199444475005+0.14872527977247496i           -1.4184606913402616E-4-1.045614940350537E-5i      -0.003943949174008042-2.931131525443698E-4i       -5.546273882236731E-5+7.462215911603023E-4i          -3.4385812320705155E-4+0.00462642291748346i          -1.1864862288239678E-6+1.597664169112981E-5i         1.8437191550770003E-6-2.4794218808001967E-5i          3.340626412741393E-11-4.5007622648447125E-10i
11193.605692841687                                -0.26911873690241667-0.022439913860199525i        -1.936130010915544-0.16144026333754832i           2.0010621586637782+0.16685450000322893i           -0.0010370044551573747-8.646902898091054E-5i      -0.004906585319223673-4.0912664240651194E-4i      -4.0463067042346285E-4+0.004852678476017285i         -1.006143784078589E-4+0.0012066537388637493i         -1.6397488184681816E-6+1.9665002948607293E-5i        1.241824255938809E-6-1.4892929745616517E-5i           3.308951589848991E-12-3.967962430087025E-11i
12559.43215754791                                 -1.903710599142663-0.17773198192531647i           -1.2873570349949153-0.12018865915711562i          2.007976267609898+0.1874662260619512i             -3.5919580444676894E-4-3.3534632239157174E-5i     -0.012460359816762466-0.0011633088837234638i      1.373916112559246E-4-0.0014716194116650941i          3.4824270943293825E-4-0.003730075137909344i          -2.7674244808770406E-6+2.964224432877545E-5i         3.298120855211316E-6-3.532660306627146E-5i            3.73909960932919E-12-4.005003301122615E-11i
14091.914656322273                                1.2674364637866462+0.13364291402777606i           1.0500573829919677+0.1107131369209556i            1.9843952969471859+0.20922018997428576i           -0.0035595378884286395-3.752900651464112E-4i      0.004314018266181159+4.5484297541174677E-4i       4.0006804891282513E-4-0.0037944673387384233i         4.375299186047765E-4-0.0041498401898551526i          2.590041360116892E-6-2.4566461384614808E-5i          -2.965313883270448E-6+2.8125044695143304E-5i          3.1653320259875605E-12-3.002388640175489E-11i
15811.388300841894                                0.5174845473698184+0.06081988823325247i           1.8349981198892948+0.21901311719678748i           1.993693873712505+0.2397892118860157i             0.0025252063840343554+3.0161088185262294E-4i      0.00607361023587648+7.294101413527098E-4i         -5.662619720372383E-4+0.004748256306159199i          -2.184919693162489E-4+0.001867932985024794i          -4.211915426077641E-6+3.5381056516144404E-5i         3.829314068660788E-6-3.2028783560747555E-5i           -9.407039137908308E-13+7.771265391944388E-12i
