% Model:              Three_mic_technique_surogate_same_radius.mph
% Version:            COMSOL 6.2.0.290
% Date:               Mar 19 2026, 19:45
% Table:              Table 13 - Point Evaluation 2
% l_load (m)                                      freq (Hz)                                         Total acoustic pressure (Pa), Point: 7            Total acoustic pressure (Pa), Point: 8            Total acoustic pressure (Pa), Point: 9            Total acoustic pressure (Pa), Point: 10           Total acoustic pressure (Pa), Point: 11           Total acoustic pressure (Pa), Point: 12           Total acoustic velocity, z-component (m/s), Point: 7 Total acoustic velocity, z-component (m/s), Point: 8 Total acoustic velocity, z-component (m/s), Point: 9 Total acoustic velocity, z-component (m/s), Point: 10 Total acoustic velocity, z-component (m/s), Point: 11 Total acoustic velocity, z-component (m/s), Point: 12
0.011                                             49.99999999999999                                 2.0010301580251078+7.38345548642526E-4i           2.0034198115738633+7.39227289588142E-4i           2.0051039702631965+7.398487150408568E-4i          0.004374657063017696+1.614172858274879E-6i        0.0043750547607850025+1.6143196018784422E-6i      0.004375274424189356+1.6144006538786697E-6i       -1.1462296875807179E-7+3.106457502079812E-4i         -7.371729172327992E-8+1.9978521438089537E-4i         -1.4206422636339385E-10+3.850159363119339E-7i        -1.1826205987670386E-10+3.205083971356887E-7i         -3.9441360975537224E-11+1.0689216304993438E-7i        -5.6301179456589E-18+1.5257574451418415E-14i
0.011                                             56.10092271509817                                 1.999975835800596+8.280003037574064E-4i           2.0029838584098316+8.292456407360061E-4i          2.005104011768935+8.301233951540786E-4i           0.0043750130314167265+1.8112779437705872E-6i      0.004375513759825367+1.8114852479125112E-6i       0.004375790331676919+1.8115997500845016E-6i       -1.4427636275867542E-7+3.484891237116768E-4i         -9.279778478972399E-8+2.241464479278194E-4i          -1.788659343254035E-10+4.3203794120567997E-7i        -1.4890042363655768E-10+3.5965838156256676E-7i        -4.9659342861247666E-11+1.1994861026147298E-7i        -7.189980700339637E-18+1.7374344594586363E-14i
0.011                                             62.94627058970836                                 1.9986487858673467+9.284144184609646E-4i          2.0024350709065+9.301732276989456E-4i             2.0051040641118245+9.314130312066991E-4i          0.004375461268974927+2.0324938323182024E-6i       0.004376091738392593+2.032786698629683E-6i        0.004376439972469064+2.032948460686099E-6i        -1.8159291787304193E-7+3.9092487457883395E-4i        -1.1681473223873054E-7+2.514734991422421E-4i         -2.2520687512847353E-10+4.848152298591805E-7i        -1.8748196853613836E-10+4.0360274599806405E-7i        -6.252630348643037E-11+1.3460381274158384E-7i         -9.23504194916106E-18+1.9881699625252987E-14i
0.011                                             70.6268772311377                                  1.9969785456687303+0.0010408265218759063i         2.001744259453776+0.0010433104152422835i          2.0051041298941485+0.0010450615819102534i         0.004376025728872892+2.2807874676001476E-6i       0.004376819585050513+2.2812012259583424E-6i       0.004377258066226618+2.281429762633672E-6i        -2.2854814138149758E-7+4.385029643962773E-4i         -1.4704398893858759E-7+2.8212548837343223E-4i        -2.835630618562047E-10+5.44057383376926E-7i          -2.360693223519175E-10+4.529336657146642E-7i          -7.873005491831528E-11+1.5105517320265506E-7i         -1.1917752208078675E-17+2.287083191915109E-14i
0.011                                             79.24465962305565                                 1.9948764984843634+0.001166595795274575i          2.0008746923656324+0.0011701035153838279i         2.005104212886395+0.0011725769220641783i          0.00437673659586074+2.5594980516610216E-6i        0.004377736227042403+2.5600826319769285E-6i       0.004378288369686807+2.5604055227864692E-6i       -2.876239681957102E-7+4.918361789330502E-4i          -1.8509039933185553E-7+3.165042156972758E-4i         -3.5705514655293657E-10+6.105635906454973E-7i        -2.972626485480045E-10+5.083185398934354E-7i          -9.91376255807458E-11+1.6952514327246347E-7i          -1.545026448271284E-17+2.641944683525937E-14i
0.011                                             88.91397050194612                                 1.9922312245423306+0.0013072041824693625i         1.999780151191862+0.0013121574174565622i          2.0051043174950496+0.001315650873626551i          0.004377631930187433+2.8723868494591646E-6i       0.004378890748792948+2.8732128243391908E-6i       0.004379586057445939+2.873669051692933E-6i        -3.619369332534228E-7+5.516060323551005E-4i          -2.3297219355605528E-7+3.550588989882151E-4i         -4.496174225709188E-10+6.852348555838062E-7i         -3.743408765024596E-10+5.705104011517755E-7i          -1.248423279101755E-10+1.9026467865808667E-7i         -2.017241205636679E-17+3.073956177184878E-14i
0.011                                             99.76311574844398                                 1.9889026802498646+0.0014642537052485137i         1.9984024889204057+0.0014712475775345503i         2.005104449263548+0.001476181640105069i           0.0043787597309152574+3.2236947674135434E-6i      0.004380345056595548+3.2248619029528882E-6i       0.004381220719057581+3.2255065760270784E-6i       -4.553977984084121E-7+6.185686690997214E-4i          -2.932267696290473E-7+3.9829129682427864E-4i         -5.662118163110293E-10+7.690881679346775E-7i         -4.714406949789259E-10+6.40360108403133E-7i           -1.572234003469943E-10+2.1355728251916624E-7i         -2.653049564139656E-17+3.603395695713106E-14i
0.011                                             111.93605692841699                                1.9847149186849007+0.0016394561881368857i         1.996668564116225+0.0016493303920377261i          2.0051046153682313+0.0016562989174962615i         0.004380180566345983+3.6182093816310315E-6i       0.004382177272355941+3.6198587429548745E-6i       0.004383280174783127+3.6207697857414983E-6i       -5.729097602589879E-7+6.935604677553174E-4i          -3.6904312134669283E-7+4.467611837789091E-4i         -7.130992127888993E-10+8.632732303428571E-7i         -5.937837829053365E-10+7.188307563647983E-7i          -1.980217049414787E-10+2.3972377831485144E-7i         -3.5197535862574993E-17+4.261027337906581E-14i
0.011                                             125.59432157547896                                1.9794470016949959+0.0018346116561754526i         1.9944863940323945+0.001848550623485027i          2.0051048248735945+0.0018583921079966823i         0.0043819709083943136+4.061343852256909E-6i       0.004384486038847458+4.063674951622251E-6i        0.004385875317735089+4.0649625775301614E-6i       -7.206136666965989E-7+7.775028956298313E-4i          -4.6442740073286193E-7+5.010921091313735E-4i         -8.981841133701613E-10+9.690922002776498E-7i         -7.479659245030601E-10+8.070148800164484E-7i          -2.494360129262725E-10+2.6912800095462723E-7i         -4.716493706096084E-17+5.08902875986481E-14i
0.011                                             140.91914656322274                                1.972821680524102+0.0020515699299384275i          1.9917403325970957+0.00207124375129913i           2.0051050891253657+0.0020851419829104136i         0.004384227380863863+4.559230647832163E-6i        0.0043873960060640165+4.562525753644212E-6i       0.004389146285075214+4.5643458977692495E-6i       -9.061899020643506E-7+8.714059405979533E-4i          -5.844095165518373E-7+5.619773157346437E-4i          -1.1314535323805936E-9+1.0880233832368031E-6i        -9.423258340142025E-10+9.061552358988852E-7i          -3.142457927826123E-10+3.021836611193768E-7i          -6.391887420105938E-17+6.146575111702679E-14i
0.011                                             158.11388300841895                                1.964491338159352+0.002292167603700331i           1.9882850332910886+0.002319930078991972i          2.005105422652543+0.0023395561017069623i          0.004387072185715856+5.118833845226203E-6i        0.004391064841359682+5.1234924740284575E-6i       0.004393270344591671+5.1260658542036055E-6i       -1.1392276098054266E-6+9.763691320356558E-4i         -7.353002940533135E-7+6.301856169160752E-4i          -1.4255373434984117E-9+1.221749995836697E-6i         -1.1874171649774673E-9+1.0176702301314197E-6i         -3.959682810790454E-10+3.3936273082381185E-7i         -8.767290571990011E-17+7.513889575279206E-14i
0.011                                             177.40669461678763                                1.9540205951232632+0.0025581297133646444i         1.983937900736473+0.002597296319782142i           2.0051058438918288+0.0026250085888227044i         0.004390660056388917+5.748085765014341E-6i        0.004395692217059162+5.7546736790738215E-6i       0.004398472008485353+5.758312876670853E-6i        -1.431672504679105E-6+0.0010935787178275186i         -9.250106299909728E-7+7.065669140006378E-4i          -1.7964263342314215E-9+1.3721954888946266E-6i        -1.4966151003424466E-9+1.1431854724341463E-6i         -4.990602290811644E-10+3.8120583149706257E-7i         -1.2180834597521988E-16+9.304371053074898E-14i
0.011                                             199.05358527674863                                1.9408648913940765+0.002850920853756367i          1.9784696708306269+0.0029061582174761606i         2.005106376379959+0.0029452846604408377i          0.004395187210448566+6.4560552114302785E-6i       0.004401531388701062+6.4653741239380104E-6i       0.004405036065909994+6.470522116156706E-6i        -1.7983637530266056E-6+0.0012242989432296127i        -1.1634459827686287E-6+7.92056872263639E-4i          -2.2643962942365854E-9+1.5415676147209257E-6i        -1.8868997420223353E-9+1.2845735270125845E-6i         -6.291782788647483E-10+4.283352966769465E-7i          -1.715295838555313E-16+1.167738368289988E-13i
0.011                                             223.34179607548148                                1.9243442793278758+0.0031715248750971525i         1.9715926826645096+0.0032493952968209814i         2.0051070501890154+0.0033046305536708646i         0.0044009029373387465+7.253158034180028E-6i       0.0044089041919275415+7.2663449562345555E-6i      0.004413324469378908+7.273630045536954E-6i        -2.257667611620054E-6+0.001369854511754769i          -1.4629915034898624E-6+8.876800378075836E-4i         -2.855203786188731E-9+1.7324143039474208E-6i         -2.379874105351701E-9+1.4440047895534161E-6i          -7.935170439728135E-10+4.814718600092114E-7i          -2.448463123183369E-16+1.4856233263490445E-13i
0.011                                             250.5936168136362                                 1.903611623601612+0.003520124292413995i           1.9629463209091478+0.003629844955232569i          2.00510790394534+0.0037078093946504597i           0.004408124699378428+8.151424739280079E-6i        0.004418220602468081+8.17009390129856E-6i         0.004423798368047197+8.18040820487031E-6i         -2.832208684118415E-6+0.0015316001153966332i         -1.83910457303965E-6+9.94550344709174E-4i            -3.6016436134402195E-9+1.9476956096506234E-6i        -3.003096830723112E-9+1.624013683196532E-6i           -1.0012512805592131E-9+5.414563271213882E-7i          -3.542492918805632E-16+1.9157010666854912E-13i
0.011                                             281.1706625951745                                 1.8776144437555848+0.003895640345974931i          1.9520790160338557+0.004050138102750528i          2.005108987511935+0.004160163724842185i           0.004417257969851791+9.16484664120437E-6i         0.004430004458263793+9.19129282395104E-6i         0.004437047096534853+9.20590476197781E-6i         -3.5496863927331323E-6+0.0017108712908570748i        -2.311032053005948E-6+0.0011138674920934597i         -4.54559391685529E-9+2.1908780076728563E-6i          -3.791842767639342E-9+1.8275862479229164E-6i          -1.2641193441646086E-9+6.09278198147541E-7i           -5.1927481704337425E-16+2.5027987090551524E-13i
0.011                                             315.47867224009644                                1.845049823607355+0.004295081359143285i           1.938426100522529+0.004512451502529504i           2.0051103656092653+0.00466768543802017i           0.004428822556332589+1.0309831772021916E-5i       0.004444927630487163+1.0347322685938113E-5i       0.0044538267074118185+1.036803879837037E-5i       -4.443740135869315E-6+0.0019089086589768307i         -2.9026680129727307E-6+0.001246907014566112i         -5.740728024263688E-9+2.466060196447662E-6i          -4.7914541808224E-9+2.058278042056585E-6i             -1.5972013142360278E-9+6.86114125226406E-7i           -7.707012516910124E-16+3.3107016305965737E-13i
0.011                                             353.97289219206897                                1.8043122620811582+0.004712630519337477i          1.921282746496599+0.005018142342043651i           2.0051121228903925+0.005237093844124523i          0.004443487945570029+1.1605816502989832E-5i       0.0044638559690360164+1.1659015149136841E-5i      0.004475111815189032+1.1688413965255606E-5i       -5.554785034006837E-6+0.0021267446851538827i         -3.6435622979191477E-6+0.001395000957342444i         -7.256153089463357E-9+2.7781439396346894E-6i         -6.060521442445008E-9+2.3203756466802604E-6i          -2.0199699569668026E-9+7.733804986391342E-7i          -1.1571963635139257E-15+4.430522949388952E-13i
0.011                                             397.16411736214064                                1.7534352308223669+0.005138385132387343i          1.8997711800531327+0.005567217932197136i          2.0051143710398605+0.005875922742631056i          0.004462121444295707+1.3076102417699746E-5i       0.004487911979507122+1.3151680746089461E-5i       0.004502166372476515+1.319345278315676E-5i        -6.930671490850482E-6+0.0023650383102142105i         -4.5700783594477345E-6+0.001559504810890646i         -9.181361727199784E-9+3.1330705233017576E-6i         -7.675251972289643E-9+2.6191219158374386E-6i          -2.55773166116391E-9+8.728066613020228E-7i            -1.7563009419620156E-15+5.993236875968755E-13i
0.011                                             445.6254690668729                                 1.690028814065722+0.005556639115110301i           1.8728014261311887+0.006157576529744591i          2.0051172590201247+0.0065926172424947225i         0.004485854862729527+1.4749024767664506E-5i       0.004518561794033639+1.4856561759974855E-5i       0.004536641960902589+1.4916007470349742E-5i       -8.626910997742033E-6+0.0026238380435368927i         -5.726675460868019E-6+0.0017417446469184792i         -1.1633084369514562E-8+3.538154481988534E-6i         -9.735579079945425E-9+2.961036098669984E-6i           -3.243637028586568E-9+9.86538782516819E-7i            -2.692151730035875E-15+8.188083729840588E-13i
0.011                                             499.99999999999994                                1.6112185565603347+0.005943584106380567i          1.8390250594941624+0.006783933940933385i          2.0051209880771745+0.007396641093432652i          0.004516178735856302+1.6659619754394432E-5i       0.004557738292805251+1.6812927773502163E-5i       0.004580717063575824+1.6897693591210325E-5i       -1.0706037317140694E-5+0.0029022484271675037i        -7.16724877634844E-6+0.0019429360910910467i          -1.4764960878608953E-8+4.002564484644385E-6i         -1.2373881905423445E-8+3.3543780209337665E-6i         -4.12154419354119E-9+1.1172902215161398E-6i           -4.164878236998774E-15+1.1290379074276019E-12i
0.011                                             561.0092271509814                                 1.5135951569533468+0.006264301600578572i          1.7967819448053535+0.007436324135995924i          2.0051258342994602+0.008298594985725142i          0.004555078577740562+1.8852059854900995E-5i       0.00460801951424861+1.9071165999128988E-5i        0.004637299071627434+1.919234502135881E-5i        -1.3235407871403525E-5+0.0031979685499384145i        -8.956389679683378E-6+0.002164063716964519i          -1.8781510274144243E-8+4.538032223924331E-6i         -1.576773200041698E-8+3.8098361031880334E-6i          -5.250193693846126E-9+1.2685640194173959E-6i          -6.499553710744939E-15+1.5704369295688121E-12i
0.011                                             629.4627058970837                                 1.3931917957124862+0.0064689486698136026i         1.7440409340842833+0.008098031844286325i          2.0051321834094353+0.009310345850443397i          0.0046052373057225374+2.1383304499524745E-5i      0.0046728942674114+2.1697453221352364E-5i         0.004710325321489589+2.187125525889285E-5i        -1.6282360215464425E-5+0.003506665570114371i         -1.1170311096697163E-5+0.002405705503962007i         -2.3958858149696904E-8+5.159924059109723E-6i         -2.0159041151584006E-8+4.3415725741063305E-6i         -6.709462693253444E-9+1.444990314617131E-6i           -1.0229121497050832E-14+2.203005497117831E-12i
0.011                                             706.2687723113777                                 1.2455168564621066+0.0064881386255732755i         1.6783372511536134+0.008742784179602728i          2.005140586018406+0.010445166120109907i           0.004670345527593114+2.432873545833982E-5i        0.004757170142725072+2.4781021714321847E-5i       0.004805225974487523+2.5031353860256613E-5i       -1.990508578020592E-5+0.0038211433327714375i         -1.3896994190320535E-5+0.0026677820847450084i        -3.0676465673827636E-8+5.888908386362942E-6i         -2.588373848090086E-8+4.968856784960544E-6i           -8.610030035816066E-9+1.6528526663084436E-6i          -1.623717249013896E-14+3.1170214596941214E-12i
0.011                                             792.4465962305569                                 1.065686026576224+0.006227747951947323i           1.5967122793313313+0.009331005372752534i          2.0051518483543984+0.011717879866716728i          0.004755594792633264+2.7791156325937674E-5i       0.00486762345243118+2.8445839101318796E-5i        0.004929662054147463+2.8808385649904175E-5i       -2.4136844761385867E-5+0.0041302707714412955i        -1.7234817597486307E-5+0.002949204695903755i         -3.946749536022738E-8+6.753638215301965E-6i          -3.3419452575710515E-8+5.718703201038476E-6i          -1.1108857532328723E-8+1.9009365574160868E-6i         -2.600954996994318E-14+4.450728269399116E-12i
0.011                                             889.1397050194613                                 0.848720704589141+0.005563845320354668i           1.495666338049356+0.009804941275344588i           2.0051671871129293+0.013145008360292861i          0.00486849582354504+3.191575182052185E-5i         0.005014079486426739+3.2870135314327826E-5i       0.005094753195631222+3.339899724103613E-5i        -2.8960249981643184E-5+0.004417655370708003i         -2.1288480298365783E-5+0.0032473894994296997i        -5.1102232921481516E-8+7.795241952964536E-6i         -4.3465396131089234E-8+6.630302827361395E-6i          -1.4435044698320353E-8+2.201952039909831E-6i          -4.209050685498142E-14+6.4205742355664374E-12i
0.011                                             997.6311574844393                                 0.5901100704412693+0.004339298745954041i          1.3711427096135982+0.01008252315750645i           2.0051885062581136+0.014744898112380694i          0.005020306182486624+3.691618165708313E-5i        0.005211300688281296+3.8320635412516934E-5i       0.005317225287542404+3.909953845271754E-5i        -3.4267453678059546E-5+0.00466009824692006i          -2.616036167391046E-5+0.003557600473291553i          -6.673340220073217E-8+9.075210289830126E-6i          -5.7082980018089E-8+7.762829865818866E-6i             -1.8935192425173064E-8+2.5750351019965754E-6i         -6.894057924650034E-14+9.375368014095215E-12i
0.011                                             1119.36056928417                                  0.2867705330231591+0.0023651035692227648i         1.2185728779593128+0.01005002752503185i           2.0052189205951962+0.016537792455269595i          0.0052286780510620145+4.312286879789653E-5i       0.00548249388343022+4.5216183155972175E-5i        0.0056234022693623965+4.6378307459617575E-5i      -3.9801628443063194E-5+0.004825973253074721i         -3.193450417409387E-5+0.003872080999458216i          -8.816516645126415E-8+1.0690088195310373E-5i         -7.595852037794989E-8+9.210023807848335E-6i           -2.5157883426577805E-8+3.050410989589166E-6i          -1.1462854793298393E-13+1.389879184101818E-11i
0.011                                             1255.943215754791                                 -0.06142872271997057-5.681263659896534E-4i        1.0330301134165727+0.00955401491470064i           2.0052638192313266+0.018545752142170167i          0.005522954495573132+5.1079236649592626E-5i       0.005866334618109643+5.4254999649969904E-5i       0.006057205185924858+5.602027273173983E-5i        -4.5076163094755535E-5+0.004873868734465294i         -3.86490785288463E-5+0.004178940717593084i           -1.1839000339839639E-7+1.2800947006619239E-5i        -1.0293165918946459E-7+1.112950989767371E-5i          -3.4023078901052796E-8+3.6787534210598418E-6i         -1.9438387373157653E-13+2.1017802245144826E-11i
0.011                                             1409.1914656322274                                -0.4493910809921731-0.004659484418045521i         0.8095625275873375+0.0083938989852671i            2.0053332355753763+0.02079217359982259i           0.0059558401382598615+6.175276003539542E-5i       0.00643246128053276+6.669457686447738E-5i         0.006697803277642337+6.94457589470119E-5i         -4.927254473417514E-5+0.004752164677525571i          -4.6251408893714184E-5+0.00446078842813301i          -1.6276835799608763E-7+1.5698445206867928E-5i        -1.4316379130945788E-7+1.3807652550876092E-5i         -4.7195581432040494E-8+4.551850606845022E-6i          -3.387113364654805E-13+3.2667537236009824E-11i
0.011                                             1581.1388300841895                                -0.8636343656281095-0.01003406955709966i          0.5438078259888252+0.006318188936733881i          2.0054478380016225+0.023300139755517247i          0.006632675654636967+7.706122631444464E-5i        0.007320368870063835+8.505113646056633E-5i        0.0077039342172297775+8.950756061929466E-5i       -5.112966179802907E-5+0.004400738981077876i          -5.4527109029527894E-5+0.004693159526485966i         -2.3197585154577057E-7+1.996620942327229E-5i         -2.0707130512793944E-7+1.7822669972726934E-5i         -6.802011785774701E-8+5.8545055836471925E-6i          -6.142403218282396E-13+5.286779075280737E-11i
0.011                                             1774.0669461678763                                -1.2783070325490036-0.016626419745855756i         0.2330268677451538+0.003030885570495077i          2.0056570908734668+0.026086765003024977i          0.00779977639771468+1.0144851524679631E-4i        0.008856832383405962+1.1519721198027441E-4i       0.009447732311897574+1.2288280671379485E-4i       -4.886212022810313E-5+0.00375671835386285i           -6.298965342662198E-5+0.00484290194623187i           -3.5084239786939165E-7+2.6974197183222163E-5i        -3.191526002438567E-7+2.453775604892211E-5i           -1.0432917619743888E-7+8.021253382744484E-6i          -1.187417828074106E-12+9.129353428432648E-11i
0.011                                             1990.5358527674864                                -1.650907371400917-0.02397972076123478i           -0.12228439600869279-0.0017762023909581334i       2.0061128404801423+0.029139142350924015i          0.010201562719344855+1.4817949533173905E-4i       0.012030754877815653+1.7474883361488235E-4i       0.013055960118138152+1.896401203031828E-4i        -4.019100889133202E-5+0.002766988940962527i          -7.069238850560802E-5+0.0048668868347749765i         -5.937029013805128E-7+4.0874058664616705E-5i         -5.533647690780012E-7+3.80969403748261E-5i            -1.7967836688510798E-7+1.2370133431647743E-5i         -2.5819374932913023E-12+1.7775602002869243E-10i
0.011                                             2233.417960754817                                 -1.9191715792649908-0.03081869538994733i          -0.5161493466163963-0.00828849791973159i          2.0075979075287345+0.032238675085394214i          0.017644206746092832+2.8333654179138414E-4i       0.021902294018484852+3.517143237890152E-4i        0.024295843103862565+3.9015073128628226E-4i       -2.2648747135019275E-5+0.001410404937259386i         -7.56610413670284E-5+0.004711637433658887i           -1.3316484620215599E-6+8.292569898843461E-5i         -1.2808238141787526E-6+7.976069743707064E-5i          -4.119409053842076E-7+2.5652781867871354E-5i          -7.487954522229413E-12+4.662971352829771E-10i
0.011                                             2505.936168136362                                 -2.0024953401069863-0.07283500212890999i          -0.899401965128961-0.032713157441736126i          1.902355661264775+0.06919271101693904i            -0.48910011044954343-0.017789608583596035i        -0.6520220967542166-0.023715426844725062i         -0.743884326328973-0.027056651008934163i          6.343974722227224E-6-1.7441805896570726E-4i          -1.5840309614384857E-4+0.004355068942073928i         9.997575703874109E-5-0.0027486919445217275i          1.0018686204729044E-4-0.0027544959779557503i          3.177879470010324E-5-8.737129838880155E-4i            7.322938037597982E-10-2.0133381714590973E-8i
0.011                                             2811.706625951745                                 -1.811218246146726-0.038732321967902224i          -1.341841873957757-0.028694860921007707i          2.0015341645938163+0.042802170364314364i          -0.011056451665897835-2.364386959763015E-4i       -0.016344141856626863-3.4951426589705767E-4i      -0.019333479884806392-4.134403071418417E-4i       4.469691795996411E-5-0.002090135384878719i           -7.746593133071775E-5+0.0036224964048988733i         1.6400458618738998E-6-7.669255544972824E-5i          1.734914148728163E-6-8.112882855612367E-5i            5.389589703169911E-7-2.520303954733794E-5i            1.578446603403004E-11-7.381202354753743E-10i
0.011                                             3154.7867224009647                                -1.2762839330416196-0.03022827675685526i          -1.7026229408757672-0.04032595279353158i          2.002848516487284+0.04743667714333963i            -0.004203344987222194-9.955456812613137E-5i       -0.0072912755607330995-1.726909858086831E-4i      -0.009038657687033337-2.1407704226228405E-4i      8.907921768655122E-5-0.003761057526365432i           -6.095087017501356E-5+0.0025734382638252853i         9.030793963953944E-7-3.812938296395047E-5i           1.0272272825640127E-6-4.337109517097276E-5i           3.088526573069336E-7-1.3040228020843869E-5i           1.1531321504445464E-11-4.868698982014596E-10i
0.011                                             3539.72892192069                                  -0.39685387103393116-0.010500142688619351i        -1.946774594589407-0.051508686823607513i          2.003208341575034+0.05300183771280002i            -0.0018506216811805742-4.896462738200288E-5i      -0.0042466927843867784-1.1236101462978301E-4i     -0.005597213855208615-1.4809374254321845E-4i      1.265063046283668E-4-0.004781312955225413i           -3.0713288309599355E-5+0.0011608109861921973i        6.582419965716375E-7-2.4878304511766898E-5i          8.27285835732573E-7-3.126732880445209E-5i             2.3560739958101454E-7-8.904798938008576E-6i           1.125522903193885E-11-4.253922062190589E-10i
0.011                                             3971.6411736214104                                0.6899509171788134+0.020437817777549553i          -1.9912842291681205-0.05898607575808226i          2.003305610903803+0.05934217466886957i            -6.107239898082661E-4-1.8090944027937695E-5i      -0.002720994373496375-8.060164285777198E-5i       -0.003889759391169902-1.1522294948624894E-4i      1.356774653487979E-4-0.004580273015416884i           1.6386716898727474E-5-5.531917560183742E-4i          5.37860837921155E-7-1.8157400541893434E-5i           7.788439451605759E-7-2.629264016806748E-5i            2.0123290398058517E-7-6.793330508904394E-6i           1.2365074244306736E-11-4.1742694382353877E-10i
0.011                                             4456.2546906687285                                1.652353405177198+0.05484417800699095i            -1.7480497442153293-0.058020490886990815i         2.0032868257381584+0.06649220675349779i           2.501164518388187E-4+8.301754204301845E-6i        -0.0017757693870941763-5.8940548959909954E-5i     -0.002832814287052975-9.40255138949081E-5i        9.163529606712282E-5-0.002760802035907103i           7.914320977098933E-5-0.0023844380761237583i          4.6639894570500504E-7-1.4051734918970127E-5i         8.474343196735653E-7-2.5531623797308004E-5i           1.7928023610540675E-7-5.401380893204372E-6i           1.422790800632048E-11-4.2866047105936956E-10i