% Model:              Three_mic_technique_surogate_test2remove.mph
% Version:            COMSOL 6.2.0.290
% Date:               Mar 19 2026, 10:30
% Table:              Table 12 - Point Evaluation 2
% freq (Hz)                                       Total acoustic pressure (Pa), Point: 7            Total acoustic pressure (Pa), Point: 8            Total acoustic pressure (Pa), Point: 9            Total acoustic pressure (Pa), Point: 10           Total acoustic pressure (Pa), Point: 11           Total acoustic velocity, z-component (m/s), Point: 7 Total acoustic velocity, z-component (m/s), Point: 8 Total acoustic velocity, z-component (m/s), Point: 9 Total acoustic velocity, z-component (m/s), Point: 10 Total acoustic velocity, z-component (m/s), Point: 11
49.99999999999999                                 2.001030159861365+7.383786677077732E-4i           2.003419812657794+7.39260444308385E-4i            2.0051039689652637+7.398818818617599E-4i          -8.966474890477679E-8+6.898151901726791E-5i       3.802992531546313E-7+6.898049742417011E-5i        -1.1462769454921481E-7+3.1064567114659643E-4i        -7.372018300381045E-8+1.997851359097534E-4i          -1.2921430917537794E-10+3.795724341142208E-7i        -1.0392637523902734E-10+3.171799155829032E-7i         9.239522575338893E-10+1.675911757918458E-7i
56.10092271509817                                 1.9999758381924337+8.280374488655314E-4i          2.002983859855323+8.292828362042305E-4i           2.0051040102152977+8.301606077107935E-4i          -1.1289455451154964E-7+7.740676743213765E-5i      4.78819058329462E-7+7.740532423892234E-5i         -1.4428231162975233E-7+3.4848903547855114E-4i        -9.280142479991522E-8+2.2414636048616364E-4i         -1.6268541406296797E-10+4.259292707024876E-7i        -1.308492013407731E-10+3.5592309344499826E-7i         1.1633099892530972E-9+1.8805966595859392E-7i
62.94627058970836                                 1.9986487888708802+9.284560871839911E-4i          2.0024350727195923+9.302149675743741E-4i          2.0051040621483227+9.314547952296698E-4i          -1.4214694660690207E-7+8.686344955663797E-5i      6.028777949812253E-7+8.68614107170454E-5i         -1.8160040860954932E-7+3.909247762174753E-4i         -1.1681931647698031E-7+2.514734018815755E-4i         -2.0483137135180067E-10+4.779598432438041E-7i        -1.6475101869605667E-10+3.994107365291556E-7i         1.4647156402019457E-9+2.1103364719558112E-7i
70.6268772311377                                  1.9969785495632524+0.0010408732535306384i         2.001744261851291+0.001043357247410773i           2.0051041275357435+0.0010451084481895038i         -1.7898589019469294E-7+9.747882321128422E-5i      7.591055049180568E-7+9.747594278464404E-5i        -2.285575721371473E-7+4.385028549495867E-4i          -1.4704976162694347E-7+2.821253804536588E-4i         -2.5790319511820574E-10+5.363636029825243E-7i        -2.074435420175398E-10+4.482288151485963E-7i          1.844277087991259E-9+2.3682212335235713E-7i
79.24465962305565                                 1.9948765033797689+0.0011666481974556794i         2.000874695379092+0.00117015605955545i            2.00510420991033+0.0011726295144185183i           -2.2538297628675736E-7+1.093962548115233E-4i      9.55859089485335E-7+1.0939218523054497E-4i        -2.876358412798827E-7+4.918360574135362E-4i          -1.8509766886451014E-7+3.165040963274248E-4i         -3.247376142518869E-10+6.019283345652517E-7i         -2.6121032058729213E-10+5.030377189337544E-7i         2.322297804624788E-9+2.657731625903251E-7i
88.91397050194612                                 1.9922312306659224+0.0013072629477023595i         1.9997801549501477+0.0013122163833277159i         2.0051043137093028+0.0013157099075939709i         -2.838245399004375E-7+1.2277742578865267E-4i      1.2036754028190907E-6+1.2277167580452558E-4i      -3.6195188507113286E-7+5.516058978129225E-4i         -2.329813511744939E-7+3.550587674670798E-4i          -4.0891037782164987E-10+6.755421272666675E-7i        -3.289305250306799E-10+5.645825485837934E-7i          2.9243774113529424E-9+2.9827922804274716E-7i
99.76311574844398                                 1.9889026879282128+0.0014643195940892515i         1.9984024936272318+0.0014713137498965682i         2.00510444446699+0.0014762479087100083i           -3.5744742484508756E-7+1.3780490860302913E-4i     1.5158451839647477E-6+1.3779678377982303E-4i      -4.5541662781839765E-7+6.185685206832561E-4i         -2.9323830701765656E-7+3.9829115264941486E-4i        -5.149302805562762E-10+7.582073615607817E-7i         -4.142357100062549E-10+6.337051682066056E-7i          3.682806397062921E-9+3.347833939552977E-7i
111.93605692841699                                1.9847149284137036+0.0016395300304567976i         1.9966685701147349+0.0016494046349220342i         2.0051046093940026+0.001656373296339672i          -4.5021138452370946E-7+1.5468519965977585E-4i     1.9091411607090944E-6+1.5467371813954748E-4i      -5.729334679703106E-7+6.935603048591863E-4i          -3.690576552669191E-7+4.4676102685509416E-4i         -6.484849896642169E-10+8.510571498653384E-7i         -5.21708674549777E-10+7.113584454561446E-7i           4.6383346457326644E-9+3.757866542137368E-7i
125.59432157547896                                1.9794470138807243+0.0018346944114449322i         1.9944864015376995+0.0018486339448958412i         2.0051048172912576+0.001858475621608311i          -5.671184484907299E-7+1.7365232500891211E-4i      2.4047435689778014E-6+1.7363609820447048E-4i      -7.206435271089444E-7+7.775027179219638E-4i          -4.64445718662823E-7+5.010919398478716E-4i           -8.16752994914206E-10+9.55374756125355E-7i           -6.57136223386051E-10+7.986232490733963E-7i           5.842420488908995E-9+4.2185659734022384E-7i
140.91914656322274                                1.9728216958553502+0.0020516626314950903i         1.9917403420616264+0.002071337253004327i          2.0051050795727505+0.0020852357562858585i         -7.144928089452341E-7+1.9497217499207E-4i         3.0294194674696723E-6+1.9494923848578863E-4i      -9.062275104729591E-7+8.714057483801516E-4i          -5.844326064926138E-7+5.61977135383697E-4i           -1.0288002766172116E-9+1.0726169178943126E-6i        -8.278311261903543E-10+8.967289745196646E-7i          7.360095504771355E-9+4.73637816741365E-7i
158.11388300841895                                1.9644913574409915+0.0022922714069333657i         1.9882850452271816+0.002320035013325376i          2.005105410610789+0.00233966142014241i            -9.003389045228299E-7+2.1894778029010433E-4i      3.817030194973005E-6+2.189153539503362E-4i        -1.1392749840833586E-6+9.763689264638945E-4i         -7.353294100869453E-7+6.301854280964714E-4i          -1.296086063338791E-9+1.2044420889198495E-6i         -1.0430435546903904E-9+1.0070786502469155E-6i         9.273626512029998E-9+5.318645571399212E-7i
177.40669461678763                                1.9540206193634955+0.0025582458824430286i         1.9839379157930497+0.0025974140880634087i         2.005105828703942+0.00262512690026265i            -1.1348027964107361E-6+2.459258225897296E-4i      4.810464145443878E-6+2.45879969872792E-4i         -1.4317321880822637E-6+0.0010935785014144184i        -9.250473590544341E-7+7.065667212415112E-4i          -1.6331095638820168E-9+1.3527451567846931E-6i        -1.3144886928327086E-9+1.1312800817364699E-6i         1.1687213817866978E-8+5.973762875753393E-7i
199.05358527674863                                1.9408649218393974+0.002851050776320731i          1.9784696898149638+0.002906290401683071i          2.005106357196006+0.00294541761299726i            -1.4307660185063367E-6+2.763047884670067E-4i      6.064129965704414E-6+2.762399319150057E-4i        -1.7984389599084053E-6+0.0012242987204531457i        -1.1634923410311416E-6+7.920566829056903E-4i         -2.0582403375646835E-9+1.5197007184171314E-6i        -1.6570264517839293E-9+1.2711850707243026E-6i         1.4733044685708924E-8+6.71137162295553E-7i
223.34179607548148                                1.924344317535548+0.003171670057830344i           1.9715927066021874+0.0032495436791400187i         2.005107025927865+0.0033047800233752117i          -1.8046197819056789E-6+3.1054534323687183E-4i     7.647185926650916E-6+3.1045357420054646E-4i       -2.2577624052205777E-6+0.0013698542899935452i        -1.463050056077612E-6+8.876798632999602E-4i          -2.594789514869643E-9+1.7078178964683928E-6i         -2.0895420134345195E-9+1.428939591763566E-6i          1.8579142024116394E-8+7.542607245385285E-7i
250.5936168136362                                 1.9036116715302962+0.0035202863423094842i         1.962946351123667+0.003630011533239103i           2.005107873245968+0.0037079775121488627i          -2.277277872137057E-6+3.4918374772704237E-4i      9.647756096625537E-6+3.4905384076963E-4i          -2.8323281967457636E-6+0.0015315999062159526i        -1.8391785859407212E-6+9.945502023885082E-4i         -3.2723999882787262E-9+1.9200109173433337E-6i        -2.636094272527484E-9+1.6070490499601372E-6i          2.343960678434553E-8+8.480417857083403E-7i
281.1706625951745                                 1.8776145038183996+0.0038958209714615613i         1.95207905419027+0.004050325139913897i            2.0051089486063844+0.004160352943037735i          -2.875515654967202E-6+3.9284950737262413E-4i      1.2178479957476482E-5+3.9266550907421805E-4i      -3.5498371321837425E-6+0.0017108711117889974i        -2.3111257091638917E-6+0.0011138674076867545i        -4.128863703133717E-9+2.15969154070722E-6i           -3.3274261295567614E-9+1.8084645924144443E-6i         2.958810104020452E-8+9.539982706586663E-7i
315.47867224009644                                1.8450498987931991+0.004295282320551441i          1.9384261487504009+0.004512661548390985i          2.0051103162204766+0.004667898576110678i          -3.6337592749479753E-6+4.4228899562696633E-4i     1.5383892613744903E-5+4.420281969036855E-4i       -4.4439303507545125E-6+0.0019089085360207414i        -2.9027866802412718E-6+0.0012469070257566592i        -5.212518308442719E-9+2.43089229607184E-6i           -4.2029703557434005E-9+2.0366992394556705E-6i         3.737577858417143E-8+1.0739271140806866E-6i
353.97289219206897                                1.8043123560656322+0.00471285358214439i           1.921282807516651+0.005018378286999562i           2.0051120600532775+0.0052373341776806555i         -4.596507588103283E-6+4.983976412416555E-4i       1.9450360547788658E-5+4.980276509667955E-4i       -5.555025212929844E-6+0.002126744656203777i          -3.643712906948706E-6+0.0013950011186838417i         -6.5854418844173956E-9+2.7384337412208463E-6i        -5.313545429295261E-9+2.29598689336948E-6i            4.725542421069712E-8+1.209980277561403E-6i
397.16411736214064                                1.7534353481117566+0.005138631963233082i          1.899771257367214+0.005567483049487643i           2.0051142908741855+0.00587619409617684i           -5.82166094125433E-6+5.62264594385774E-4i         2.461965439450067E-5+5.617390924389402E-4i        -6.9309749909271685E-6+0.0023650384297520346i        -4.5702699040329904E-6+0.0015595052006879889i        -8.32776638822622E-9+3.088155830191529E-6i           -6.725029725579866E-9+2.5915040054165324E-6i          5.98144293864297E-8+1.3647700596087337E-6i
445.6254690668729                                 1.690028960145683+0.005556911137615528i           1.8728015242639309+0.0061578745451918195i         2.0051171563879673+0.006592924134209342i          -7.385178443747647E-6+6.352359057023904E-4i       3.1207811780650555E-5+6.344884361944809E-4i       -8.62729489133052E-6+0.002623838388927057i           -5.7269197040467855E-6+0.0017417453766831704i        -1.0543591187480655E-8+3.4872442291925616E-6i        -8.523452045521092E-9+2.9296844507777467E-6i          7.582062013120882E-8+1.5415178306377576E-6i
499.99999999999994                                1.6112187380682668+0.005943882258627762i          1.8390251843378056+0.0067842691039568205i         2.0051208560968967+0.007396988916401029i          -9.387729271409976E-6+7.190057283051927E-4i       3.963188501164513E-5+7.179405481862475E-4i        -1.0706523498796187E-5+0.0029022491070382107i        -7.167561232666544E-6+0.0019429373185330737i         -1.3369237560164022E-8+3.9447002406054555E-6i        -1.0822180188401587E-8+3.318675857923731E-6i          9.628724175214449E-8+1.744268458387568E-6i
561.0092271509814                                 1.5135953818678836+0.006264625974059884i          1.7967821041017809+0.0074367013268915524i         2.0051256636098285+0.008298990281978573i          -1.1964418657982559E-5+8.157509235741761E-4i      5.044876705512765E-5+8.142293587096359E-4i        -1.3236024573520913E-5+0.003197969715002498i         -8.956791043709838E-6+0.0021640656635956708i         -1.6985016925652006E-8+4.4720330328910356E-6i        -1.3772297751003867E-8+3.7690155860979588E-6i         1.2256728814352034E-7+1.978206424192935E-6i
629.4627058970837                                 1.3931920735855998+0.006469297926647541i          1.7440411381358223+0.008098456697088242i          2.0051319610466525+0.009310796687092058i          -1.5299398949149097E-5+9.283347060695125E-4i      6.441309540760245E-5+9.261545218005193E-4i        -1.6283144060366355E-5+0.003506667426805582i         -1.1170829326732803E-5+0.002405708478688183i         -2.163242571787022E-8+5.084305296405024E-6i          -1.757796450089947E-8+4.294656951221559E-6i           1.5649418137565643E-7+2.2501336162137075E-6i
706.2687723113777                                 1.2455171987395988+0.006488509083673954i          1.6783375138917178+0.008743263255121458i          2.0051402936234735+0.01044568265808846i           -1.9648506728633225E-5+0.0010606235773027847i     8.256634955099138E-5+0.001057487228668558i        -1.9906084662632233E-5+0.0038211461595926053i        -1.3897667662604297E-5+0.0026677865148933035i        -2.7639995400299777E-8+5.801758766033175E-6i         -2.2519815540803263E-8+4.9145716055577345E-6i         2.005982380579801E-7+2.569212317512302E-6i
792.4465962305569                                 1.0656864471388545+0.006228132102017679i          1.5967126199873645+0.009331546394481879i          2.0051514591991477+0.011718475230871184i          -2.537559827005611E-5+0.001217997123076978i       1.0637900193546209E-4+0.0012134617791444236i      -2.413812198531889E-5+0.004130274937186009i          -1.7235700014314547E-5+0.0029492111670552613i        -3.546345576897527E-8+6.652426849847735E-6i          -2.8991793090500172E-8+5.655335150190282E-6i          2.5845203052678715E-7+2.9481595019840972E-6i
889.1397050194613                                 0.8487212208618251+0.005564229349434828i          1.4956667839156763+0.009805553462763125i          2.0051666609584333+0.013145700025907286i          -3.3013314328346714E-5+0.0014082008434600339i     1.379871139320704E-4+0.001401597439949215i        -2.8961890411632805E-5+0.0044176613521714i           -2.1289648620792936E-5+0.0032473988047298182i        -4.575056756943418E-8+7.676503132412803E-6i          -3.75613427675654E-8+6.555465692487015E-6i            3.3524520677849333E-7+3.4052435776498988E-6i
997.6311574844393                                 0.5901107058357945+0.004339658216443178i          1.3711433008478764+0.010083217708518902i          2.0051877799480042+0.01474571021882043i           -4.336972441738576E-5+0.0016428421325610167i      1.8060636275366384E-4+0.0016331393645979964i      -3.4269573322991566E-5+0.004660106641146825i         -2.6161929564207566E-5+0.003557613671106333i         -5.945054866241041E-8+8.934002573186638E-6i          -4.9072176239343904E-8+7.673056398559108E-6i          4.3879038573066724E-7+3.967785169356466E-6i
1119.36056928417                                  0.28677132248897214+0.0023653954097452076i        1.2185736765512598+0.01005081832272975i           2.0052178896952726+0.016538759892128743i          -5.7726671957087794E-5+0.001940172209215398i      2.3930178408475614E-4+0.0019257369199471852i      -3.9804390362188544E-5+0.00482598477552203i          -3.193664621880244E-5+0.003872099474399743i          -7.800873869387243E-8+1.0519008008408686E-5i         -6.482891184074373E-8+9.100007966874787E-6i           5.813932791920394E-7+4.678664239102339E-6i
1255.943215754791                                 -0.06142771999796632-5.679799733127474E-4i        1.0330312213778805+0.009554919541594934i          2.0052622991136526+0.018546928310320142i          -7.82360642684638E-5+0.002330653548922426i        3.225304435064639E-4+0.0023088014818016364i       -4.50798061714284E-5+0.0048738841911082935i          -3.865207761779023E-5+0.0041789662324479065i         -1.0373536569508454E-7+1.2588185117826528E-5i        -8.694972722356565E-8+1.0990583610053565E-5i          7.836006753589205E-7+5.609337102750392E-6i
1409.1914656322274                                -0.44938975208575993-0.004659632253248914i        0.8095641280171472+0.008394939974027849i          2.005330869636069+0.020793646627040488i           -1.0878745146075952E-4+0.002869211790696075i      4.4554572935406205E-4+0.0028352918071097434i      -4.927744209190321E-5+0.0047521849035596165i         -4.625575976110549E-5+0.004460823141078709i          -1.4055938304408247E-7+1.5423547235711926E-5i        -1.1909158836017618E-7+1.362438756932427E-5i          1.082471310620406E-6+6.888469546503469E-6i
1581.1388300841895                                -0.8636324717934732-0.010034826122806206i         0.543810290129138+0.0063193940218663446i          2.0054438472750475+0.023302071153015306i          -1.5715340154575025E-4+0.003665872383526949i      6.389453732174415E-4+0.0036111689908088314i       -5.113645913750483E-5+0.004400764786159621i          -5.4533781991147815E-5+0.004693205927719801i         -1.9571866988661704E-7+1.9589440406911913E-5i        -1.6808133017914412E-7+1.7564134494696738E-5i         1.5523436393028583E-6+8.773499031744657E-6i
1774.0669461678763                                -1.2783040095596039-0.016628573836166796i         0.23303109905443856+0.003032277585998415i         2.0056494293821436+0.026089501712522757i          -2.412915969886804E-4+0.0049777083962778594i      9.744844518570716E-4+0.004883736801124269i        -4.887214071524323E-5+0.0037567507836337847i         -6.300093203221321E-5+0.004842962651016158i          -2.8397215521025004E-7+2.6403782291319513E-5i        -2.479731478600275E-7+2.4129793209064386E-5i          2.367549596490856E-6+1.1865261699942184E-5i
1990.5358527674864                                -1.6509015919969279-0.02398596262089189i          -0.12227540407071982-0.0017747087055844809i       2.0060941634835734+0.029143666271873356i          -4.1352321267394253E-4+0.007576970849496775i      0.0016694874147853021+0.007394932874649561i       -4.020789492244007E-5+0.002767031993162206i          -7.071565104575271E-5+0.004866964294176881i          -4.386578514759628E-7+3.982485260529989E-5i          -3.9051673953326956E-7+3.729843309091229E-5i          4.0560879668539835E-6+1.796632997198428E-5i
2233.417960754817                                 -1.919154960495576-0.0308472145637193i            -0.5161160934297353-0.008288734523580425i         2.0075159010399677+0.03225023438125886i           -9.122488739204843E-4+0.01533419798257579i        0.00383656993576094+0.014854014674678557i         -2.269132857199572E-5+0.0014104976164743465i         -7.574379304871286E-5+0.004711736857887472i          -6.961054249683047E-7+7.968688604158985E-5i          -6.249919295375691E-7+7.703657602469664E-5i           9.321104941807666E-6+3.6088519582665986E-5i
2505.936168136362                                 -1.8876780306893826-0.07593059062686681i          -0.8487568154645301+0.07037629373835312i          1.7959777683151334-0.2616681296252597i            1.7645641827956835-0.3813345622218383i            1.5209968527400701-0.9664114875184158i            -2.7297239237415136E-4-1.6687920442287876E-4i        -2.815769874204084E-4+0.004104440977895256i          0.008892585534148404-0.002486152894339278i           0.008957971496940467-0.002511345009278294i            0.0036953342652520007-0.0023479395589653214i
2811.706625951745                                 -1.8112183614777664-0.03875640658163929i          -1.3418195349056619-0.028703834231352796i         2.001442460928661+0.04279709539844557i            0.0015611022818067908-0.015365782544622333i       -0.0045485750822648425-0.014717891035053256i      4.4702506741083644E-5-0.002090093718749911i          -7.752324160501008E-5+0.0036226388231703657i         2.290487818885422E-6-7.764502810565407E-5i           2.368690661097391E-6-8.26173686500552E-5i             -1.105095256537556E-5-3.575781996173685E-5i
3154.7867224009647                                -1.27628113051549-0.030232882978954354i           -1.7026187186458146-0.040329015552407275i         2.002822521286839+0.047433478859858005i           8.96888384438223E-4-0.007668891029039015i         -0.0025748599460088967-0.007246786189893047i      8.908658368913246E-5-0.0037611058840558015i          -6.096403448620098E-5+0.0025735537892947183i         1.067724349015351E-6-3.8086385567945946E-5i          1.1799223373296681E-6-4.3594539324579194E-5i          -6.255730788303878E-6-1.7606420530751152E-5i
3539.72892192069                                  -0.39684595873760337-0.010501140353118887i        -1.946773309896246-0.05151023017528426i           2.00319483374231+0.05299942893759136i             7.282879707413788E-4-0.005057837089824475i        -0.0019062111433637552-0.004705228592600244i      1.2651322037804578E-4-0.004781425032781499i          -3.07181194138961E-5+0.0011608766705196022i          7.325614322666865E-7-2.4726458378048548E-5i          8.90863666260484E-7-3.128034717700816E-5i             -4.631221207576786E-6-1.1431588346654837E-5i
3971.6411736214104                                0.689963036853793+0.020438004361638066i           -1.991283602594085-0.05898686362569574i           2.0032964647819504+0.05934010671126545i           7.035255962235765E-4-0.003696885209875727i        -0.0015592201271975301-0.003374064243884351i      1.3568446711103386E-4-0.00458043807596197i           1.638679879857521E-5-5.532250495673431E-4i           5.80400967385479E-7-1.7973849097074666E-5i           8.097278762007426E-7-2.619962032548322E-5i            -3.7881915519610046E-6-8.197456730362999E-6i
4456.2546906687285                                1.6523643337756557+0.05484461688359204i           -1.7480489295528792-0.058020828648636356i         2.0032760946432075+0.06649018419881313i           7.993742696739292E-4-0.002776905278544963i        -0.0013097050321993185-0.0024774215568723694i     9.164193959737012E-5-0.0027609749258930456i          7.914947028441002E-5-0.0023846337206947774i          4.979196557473789E-7-1.3949892632727897E-5i          8.618334014946158E-7-2.5368226743379404E-5i           -3.181983900368781E-6-6.019031476920235E-6i
4999.999999999999                                 1.9952626350981137+0.07422153706613986i           -1.1546230415727923-0.04295078262769728i          2.0032340822603834+0.07451645367516123i           0.001204148297167824-0.0018700246639899688i       -9.930801459454178E-4-0.0016352286609761981i      -1.66474249292594E-5+4.475313278908698E-4i           1.4825971970611987E-4-0.003985601059335297i          4.3865270617255797E-7-1.0994712267081863E-5i         1.190342981699075E-6-3.1708505617164865E-5i           -2.4127244757823897E-6-3.972886560835121E-6i
5610.0922715098195                                1.2919959119928188+0.05380761112247149i           -0.22780979742895058-0.009487786171064659i        1.998304752636866+0.08322177781229889i            -1.7698880400518306E-4+0.0027262759905049417i     0.001580781708999863+0.00223718529155161i         -1.5535030372622834E-4+0.0037301981153967326i        2.0178939292341528E-4-0.004845263270728232i          4.755870643236316E-6-1.1400121263598045E-4i          -4.728111514521205E-7+7.708194284120745E-6i           3.840593098388256E-6+5.435377294255527E-6i
6294.6270589708365                                -0.3422446896522935-0.01605935549714207i          0.8656770717241883+0.040621784970192094i          2.003375497428036+0.09401045854922813i            -0.0015753125428280721-0.004633045606922675i      -0.0028919198649704518-0.003519084303156405i      -2.257546535363641E-4+0.004810900254058126i          2.063825540219157E-4-0.0043980655042691824i          -9.157450033998396E-7+1.8297672860958138E-5i         -1.1969349124033507E-6+2.4598497577676213E-5i         -7.026109045113742E-6-8.5498165819947E-6i
7062.687723113769                                 -1.82855056188259-0.09616314329396507i            1.7627088157352564+0.09270052025441204i           2.0021821732230185+0.10529299040014477i           -1.6496043432543585E-4-0.0032967300354608048i     -0.0022920250165182187-0.0023531048907365314i     -1.0472337341625478E-4+0.0019913070160407186i        1.2168120849498726E-4-0.002313760255834389i          -6.6586278825441125E-9+1.7850687888216447E-7i        6.888135007360047E-8-1.306942564045932E-6i            -5.568616656993274E-6-5.717019465941032E-6i
7924.4659623055695                                -1.5575688764426985-0.09192869812445313i          1.956755592553039+0.11548889240316859i            1.983505657047957+0.11708408199439156i            -0.018288130128154948-0.0030987641689875747i      -0.001591258278072234-0.0013132596464959408i      1.810722119741731E-4-0.003067952394447329i           -6.060351316229914E-5+0.0010268250531540923i         1.4494414306480054E-5-2.4961833892180925E-4i         -1.593326634274935E-5+2.7426370052804845E-4i          -3.86630863958224E-6-3.190536567003099E-6i
8891.397050194613                                 0.6695790793093894+0.04429607514183772i           1.0729836053051756+0.07098423655471597i           2.0015646698066623+0.1324150156411455i            -0.001015520172883374-0.003420804951591253i       -0.002768138948693011-0.0018823011050817186i      3.0484229868919316E-4-0.004607951930436327i          -2.723874759518154E-4+0.0041173806616753485i         -9.935566907763266E-8+9.870781932765785E-7i          -7.547058277028601E-7+1.124240717958198E-5i           -6.725392058223374E-6-4.573196776674156E-6i
9976.311574844403                                 1.9760419302631866+0.14686873977551332i           -0.6349933520001437-0.04719526098991141i          2.00102309840015+0.14871814571379838i             0.0016817080777832964-0.003517021883378173i       -0.003224351815380047-0.0016768724287589206i      -5.5461624884765714E-5+7.462219651495327E-4i         -3.4385794262442295E-4+0.004626421760179128i         -1.132808039244397E-6+1.6004392829567233E-5i         1.8315851198466728E-6-2.4799769649685988E-5i          -7.833874101027604E-6-4.0745169132812805E-6i
11193.605692841687                                -0.2691188996290598-0.022439151292983933i         -1.9361293643258646-0.16143982869178589i          2.001063328743731+0.16684894264540084i            6.282835129667378E-4-0.004715121466238454i        -0.004474702636130033-0.001609060130426068i       -4.046302698761329E-4+0.0048526766075952426i         -1.0061595020499072E-4+0.0012066526728877983i        -1.6421382875345286E-6+1.966414592467587E-5i         1.2071919303808065E-6-1.4905281098364522E-5i          -1.087172396748961E-5-3.909392536594971E-6i
12559.43215754791                                 -1.9037054369642832-0.17773258090085317i          -1.287352966123642-0.12019204517441077i           2.0079849783836368+0.18739383117540204i           0.002021856260822121-0.012316925779592182i        -0.012226432007384356-0.002370501073910072i       1.3737894243762876E-4-0.0014716179660086764i         3.4823299653809686E-4-0.0037300671329642482i         -2.6369796923805303E-6+2.9667454590476575E-5i        3.0368103576748105E-6-3.537708774886671E-5i           -2.970540294608142E-5-5.759417018858109E-6i
14091.914656322273                                1.2674360455938631+0.13364226602865725i           1.050057091424189+0.11071173152352284i            1.984395602648586+0.20919210774639824i            -0.0037027226571239805+0.003948429781207094i      0.004324255005641052+1.4284383656320982E-4i       4.000691100986462E-4-0.0037944660889838583i          4.3753120194841254E-4-0.0041498388409763835i         2.6641618100738405E-6-2.456400049521161E-5i          -2.9934469346164822E-6+2.812420232261081E-5i          1.0506297671030797E-5+3.470338132476276E-7i
15811.388300841894                                0.5174887139484258+0.06083670480923816i           1.8349899708992399+0.21900055742645602i           1.9936833599817763+0.2398069961040432i            0.0034573108178805683+0.006368257974063381i       0.005824036730111264-8.947828466041325E-4i        -5.662681228299754E-4+0.004748242777014483i          -2.1847908332677405E-4+0.0018679404158522793i        -4.370532431219848E-6+3.5405345434567565E-5i         4.048805981189113E-6-3.20623699649804E-5i             1.4150297998067393E-5-2.1739882499782357E-6i
