% Model:              Three_mic_technique_surogate_test2remove.mph
% Version:            COMSOL 6.2.0.290
% Date:               Mar 19 2026, 10:06
% Table:              Table 12 - Point Evaluation 2
% freq (Hz)                                       Total acoustic pressure (Pa), Point: 6            Total acoustic pressure (Pa), Point: 7            Total acoustic pressure (Pa), Point: 8            Total acoustic pressure (Pa), Point: 9            Total acoustic pressure (Pa), Point: 10           Total acoustic velocity, z-component (m/s), Point: 6 Total acoustic velocity, z-component (m/s), Point: 7 Total acoustic velocity, z-component (m/s), Point: 8 Total acoustic velocity, z-component (m/s), Point: 9 Total acoustic velocity, z-component (m/s), Point: 10
49.99999999999999                                 2.0010248770646055+6.558252183705022E-4i          2.0034163349071226+6.566090059091825E-4i          2.0051035241649826+6.571619731791653E-4i          0.01172060296595218+3.841365036332654E-6i         0.011720869850720425+3.841452506390331E-6i        -1.0187561856230437E-7+3.108383725903956E-4i         -6.554172857047822E-8+1.999780210959467E-4i          -1.233978741436395E-10+3.765061325659831E-7i         -1.0322378358114251E-10+3.1495183941149194E-7i       -2.1409911882755245E-17+6.771640135491763E-14i
56.10092271509817                                 1.9999691883184596+7.354553082251895E-4i          2.0029794816865123+7.365622933986629E-4i          2.005103450273217+7.373433474172246E-4i           0.011721790738581091+4.310493017071907E-6i        0.011722126763949431+4.310616584795996E-6i        -1.2823050101507157E-7+3.487051405148573E-4i         -8.250565701527663E-8+2.243627451625668E-4i          -1.5536300104499169E-10+4.2248824415071215E-7i       -1.2996527548445695E-10+3.5342262623616316E-7i       -2.8099408283176237E-17+7.456969979841192E-14i
62.94627058970836                                 1.9986404186343325+8.246398193437577E-4i          2.0024295612611125+8.262032210767262E-4i          2.0051033575032995+8.273064304532106E-4i          0.01172328636719664+4.837032545645238E-6i         0.01172370945728594+4.837207112781751E-6i         -1.6139569953706878E-7+3.9116709543128683E-4i        -1.0385817734247823E-7+2.517161385925218E-4i         -1.9561307201111289E-10+4.7409812367863974E-7i       -1.636391410548553E-10+3.966044249940677E-7i         -3.6045736518368427E-17+8.953625848655385E-14i
70.6268772311377                                  1.9969680140540258+9.244779282863476E-4i          2.0017373235399973+9.266858361376932E-4i          2.005103240565665+9.28244056387991E-4i            0.011725169828911067+5.428059255819715E-6i        0.011725702561649204+5.428305879528564E-6i        -2.0312662312054253E-7+4.38774523153947E-4i          -1.3073339439702177E-7+2.8239766357829815E-4i        -2.462981667718923E-10+5.320295320390964E-7i         -2.0604523493127747E-10+4.450790343463386E-7i        -4.454328038021092E-17+9.677305016969637E-14i
79.24465962305565                                 1.9948632433396738+0.0010361753730708495i         2.000865961106574+0.0010392933152897793i          2.005103093701924+0.0010414941741518696i          0.011727541809910754+6.091540385384383E-6i        0.011728212629528435+6.091888823689589E-6i        -2.556285223239138E-7+4.921405657386E-4i             -1.6455774824322627E-7+3.168095014712064E-4i         -3.101279235787188E-10+5.970637927987223E-7i         -2.594522726752383E-10+4.995021263655376E-7i         -5.524523272188131E-17+1.0663923180780539E-13i
88.91397050194612                                 1.9922145431208726+0.0011610462827955888i         1.999769160517403+0.0011654490518068909i          2.0051029096589135+0.001168557517024891i          0.011730529342618186+6.836456211780792E-6i        0.011731374090479842+6.836948523900519E-6i        -3.216702602544464E-7+5.519471264665205E-4i          -2.071249570886268E-7+3.5540129439168056E-4i         -3.9051811920329046E-10+6.700817058997791E-7i        -3.2672092057329205E-10+5.606134562619243E-7i        -7.013281930794584E-17+1.208249328503262E-13i
99.76311574844398                                 1.9888816880690499+0.0013005107353253234i         1.9983886538534628+0.0013067272494341386i         2.0051026779650294+0.0013111174856592438i         0.011734292569608486+7.672941809378668E-6i        0.011735356418413116+7.673637449948686E-6i        -4.0472600293914196E-7+6.189507707507517E-4i         -2.606899515285475E-7+3.9867527177637406E-4i         -4.917762290143615E-10+7.520774032655902E-7i         -4.114597889667587E-10+6.292488154412618E-7i         -8.733563944708784E-17+1.335631904149556E-13i
111.93605692841699                                1.9846885050383498+0.0014560848283015492i         1.9966511494794834+0.001464861331540819i          2.005102387632136+0.0014710616595132963i          0.011739033670510171+8.612449149200949E-6i        0.011740373570395502+8.61343217897591E-6i         -5.091508775503377E-7+6.939883287602006E-4i          -3.2808629248063145E-7+4.471917299624287E-4i         -6.193364059135772E-10+8.441746120452105E-7i         -5.182231685410258E-10+7.063541530461143E-7i         -1.117502182904798E-16+1.5110356665564642E-13i
125.59432157547896                                1.97941377073378+0.0016293614257087675i           1.9944644743155808+0.0016417504654495266i         2.0051020235753314+0.0016505068016356866i         0.011745007840138015+9.667944622012893E-6i        0.011746695615808371+9.66933392050784E-6i         -6.403984271281816E-7+7.779817439438578E-4i          -4.128730601196478E-7+5.015747935766116E-4i          -7.800580566297888E-10+9.476458896597152E-7i         -6.52762742873827E-10+7.930024252799218E-7i          -1.391414476375352E-16+1.6883167807785945E-13i
140.91914656322274                                1.97277987983163+0.001821975043417819i            1.9917127436737174+0.001839460625973549i          2.0051015676881865+0.0018518259706654082i         0.011752537580005638+1.0854140589480619E-5i       0.011754663857863798+1.0856104328685679E-5i       -8.052878525492073E-7+8.719414962666298E-4i          -5.195178553424215E-7+5.625183374101849E-4i          -9.826055149104095E-10+1.0639357539784794E-6i        -8.223481943681768E-10+8.904139373063073E-7i         -1.7416327947476088E-16+1.8794290919571614E-13i
158.11388300841895                                1.9644387690422005+0.0020355449242360477i         1.9882503110229046+0.0020602183649289793i         2.0051009977358+0.002077678990502676i             0.01176203013701005+1.21877765403941E-5i          0.011764709334262715+1.2190552715683802E-5i       -1.0123306058889776E-6+9.769676076568225E-4i         -6.536244338051842E-7+6.307918645553848E-4i          -1.2379323497986233E-9+1.1946885919595303E-6i        -1.0361772133004734E-9+9.999812163832765E-7i         -2.4362456531715E-16+2.3334972833760375E-13i
177.40669461678763                                1.9539545009882737+0.0022715863667878795i         1.9838942036997345+0.0023063930219761127i         2.0051002861666123+0.002331046332890509i          0.011774003317088251+1.368796735260083E-5i        0.011777379992371002+1.3691892935071461E-5i       -1.2721259080777579E-6+0.0010942467947962545i        -8.222148586468419E-7+7.072460230003482E-4i          -1.5599012518772743E-9+1.341783046445451E-6i         -1.3059017664005406E-9+1.1232998540453309E-6i        -3.017743065874968E-16+2.5977701219109926E-13i
199.05358527674863                                1.9407818203960516+0.002531376355477473i          1.978414684181439+0.002580461183387695i           2.0050994000277425+0.002615266259381926i          0.01178911156443353+1.537662706503518E-5i         0.011793368529149719+1.5382179456198172E-5i       -1.5978337734712866E-6+0.0012250437116144274i        -1.0340775507235235E-6+7.928172778222886E-4i         -1.9660803110189374E-9+1.5073747980973368E-6i        -1.646306539207344E-9+1.2622073344237235E-6i         -3.8508088250954756E-16+2.949874301685713E-13i
223.34179607548148                                1.924239914634019+0.0028157552158546554i          1.9715234970926019+0.0028849456494623492i         2.0050982996149895+0.0029340759188258236i         0.011808187260613844+1.7279012152673685E-5i       0.011813555971253609+1.728686822866072E-5i        -2.005731637359208E-6+0.0013706833556740004i         -1.3001943432951755E-6+8.88531019316874E-4i          -2.478771343150488E-9+1.6939507848216306E-6i         -2.0761888937468468E-9+1.4188326872684052E-6i        -4.849952993346596E-16+3.3146554386414436E-13i
250.5936168136362                                 1.9034805757918967+0.003124838077979736i          1.9628592813113772+0.0032223167927959194i         2.005096938080884+0.003291656002179155i           0.01183229060586283+1.9424412681809575E-5i        0.011839064540180657+1.94355330726157E-5i         -2.5158536504874032E-6+0.0015325205188651315i        -1.634260294394192E-6+9.95502054329804E-4i           -3.1263457161178834E-9+1.90439894736069E-6i          -2.619507886902692E-9+1.5956610410808568E-6i         -6.118125453636938E-16+3.7255581188349143E-13i
281.1706625951745                                 1.8774499986269284+0.003457601225492446i          1.951969532294072+0.003594839943629454i           2.0050952613795423+0.003692678813443216i          0.011862776011953248+2.18470526022901E-5i         0.011871327979603864+2.1862802312722794E-5i       -3.1526990856367717E-6+0.0017118905292978815i        -2.0533098876853545E-6+0.0011149309576985052i        -3.944992409558116E-9+2.1420995390628184E-6i         -3.306897306418647E-9+1.7956189676885337E-6i         -7.71660069384622E-16+4.18859726659701E-13i
315.47867224009644                                1.844843638643357+0.0038112965001268944i          1.9382884109602951+0.004004345778977032i          2.0050932089946545+0.00414235904341779i           0.011901380259497392+2.4587280993187513E-5i       0.011912184956066742+2.4609602615117415E-5i       -3.945973149411981E-6+0.0019100333278749854i         -2.5784606274423667E-6+0.0012480941027940718i        -4.981026106470824E-9+2.4110468246261317E-6i         -4.177678102123384E-9+2.022189265612473E-6i          -9.766701210150655E-16+4.731380906088915E-13i
353.97289219206897                                1.8040540056660492+0.004180632463442508i          1.9211096222100839+0.004451891810165584i          2.00509071628743+0.004646505766917078i            0.011950340947082156+2.7693175015071714E-5i       0.011964004584393886+2.772483850493293E-5i        -4.931283869932402E-6+0.00212797999908966i           -3.2357781879649926E-6+0.0013963242768028198i        -6.293967342638427E-9+2.716014165973352E-6i          -5.282567038695118E-9+2.2795680579740627E-6i         -1.234071881168509E-15+5.3236292350843E-13i
397.16411736214064                                1.7531121604789768+0.004556644233194485i          1.8995535553188538+0.004937270956914886i          2.0050877196321544+0.005211572654262303i          0.012012557940471201+3.122273297937617E-5i        0.012029857570022402+3.1267697733494006E-5i       -6.150652808309903E-6+0.0023663870814486796i         -4.057252817738752E-6+0.0015609775282783415i         -7.960705297990009E-9+3.062782290732984E-6i          -6.687373432800314E-9+2.5728837025276244E-6i         -1.5619756188643856E-15+6.009834087246721E-13i
445.6254690668729                                 1.6896252935393847+0.004925157601187096i          1.872527934854992+0.005458307962099263i           2.0050841654376756+0.005844701518823935i          0.012091817174821879+3.524693049061875E-5i        0.01211375352303152+3.5310873645678464E-5i        -7.652591767213333E-6+0.002625299216140367i          -5.0818499038077896E-6+0.0017433801778316115i        -1.0081209035952383E-8+3.458461059227626E-6i         -8.478127322819057E-9+2.9085076103187665E-6i         -1.981317127249274E-15+6.796369511490489E-13i
499.99999999999994                                1.6107155190260585+0.005264740726356826i          1.8386814511308813+0.0060098639427336046i         2.005080025794101+0.006553749776452131i           0.012193107117035452+3.985405670323833E-5i        0.012220976642376568+3.994515027213558E-5i        -9.49133051199536E-6+0.0029038149997570877i          -6.356548902777086E-6+0.0019447476136074163i         -1.2786501427892915E-8+3.911952620723907E-6i         -1.0768327302114842E-8+3.2945044777618676E-6i        -2.5209008763232635E-15+7.715964720747223E-13i
561.0092271509814                                 1.5129695321403684+0.005544041138955414i          1.796350340958707+0.006582445964935557i           2.0050753232321474+0.00734728614450412i           0.012323076702820134+4.51559947236002E-5i         0.012358571648406955+4.528606042182522E-5i        -1.172452628369976E-5+0.0031996246600285915i         -7.937201999081799E-6+0.0021660634349697032i         -1.6250022563184382E-8+4.434633224401129E-6i         -1.3709406838472367E-8+3.7412988697225726E-6i        -3.2131716572106827E-15+8.769205903197759E-13i
629.4627058970837                                 1.392415935095193+0.005718446407954953i           1.7434988665487263+0.007160292109274331i          2.0050701681907284+0.00823452677790219i           0.012490716002329035+5.1297524160543176E-5i       0.012536066339926002+5.1483771293064276E-5i       -1.4408408244442525E-5+0.003508382429066228i         -9.88890395080549E-6+0.002407903555680537i           -2.0704212585717406E-8+5.0413824784140355E-6i        -1.7506223525046693E-8+4.262686550723462E-6i         -4.108705574490781E-15+1.00020036202725E-12i
706.2687723113777                                 1.2445580141624568+0.00572612441303269i           1.677656384911343+0.007718779740178866i           2.0050648128960966+0.009225163027854269i          0.012708399840283931+5.847045920697172E-5i        0.01276657987869472+5.873814149626944E-5i         -1.7588774338863946E-5+0.003822873572924099i         -1.2285334228178898E-5+0.0026701849388695814i        -2.646538752819796E-8+5.752182062409357E-6i          -2.2440633660437175E-8+4.877412442013037E-6i         -5.2761289305043655E-15+1.1464657677383951E-12i
792.4465962305569                                 1.0645059876612022+0.00548376480521382i           1.5958566544428117+0.008220998905505381i          2.0050597242791937+0.01032899399384156i           0.012993546583934645+6.693579398110345E-5i        0.013068585039810425+6.7322351922826E-5i          -2.128554545228187E-5+0.004131940557168465i          -1.5206158752406626E-5+0.0029518127799887783i        -3.397227447728338E-8+6.594682825105024E-6i          -2.8908548349662274E-8+5.611714559797696E-6i         -6.812017076145938E-15+1.3222287817521328E-12i
889.1397050194613                                 0.8472757055570648+0.004882878747233982i          1.494589832377769+0.008613372111372189i           2.00505567626579+0.011555204156728439i            0.013371368099876062+7.705964980313586E-5i        0.013468830765830726+7.762133046671853E-5i        -2.5467731106322237E-5+0.004419153249225283i         -1.8730976498868255E-5+0.0032501936133417777i        -4.384799925611828E-8+7.608492122831637E-6i          -3.748039913916436E-8+6.5035879957969534E-6i         -8.851114241491974E-15+1.5361084432618773E-12i
997.6311574844393                                 0.5883512495053533+0.0037885220849548026i         1.3697851665467173+0.00882034560963327i           2.005053858266358+0.01291097934752998i            0.01387966173734695+8.93741708247827E-5i          0.014007436638089737+9.019694129442449E-5i        -3.0014864312425044E-5+0.004661258989478318i         -2.2927326805308617E-5+0.0035605761447922457i        -5.7004350903854324E-8+8.85268194163399E-6i          -4.90042288624571E-8+7.610276146157685E-6i           -1.161650926099277E-14+1.8041796748912689E-12i
1119.36056928417                                  0.28464532895370664+0.0020441121816719312i        1.2168538161342308+0.0087385439418805i            2.005055998718378+0.014398828945939577i           0.014577678522109184+1.0468610333223314E-4i       0.014747323691670585+1.0590436944528983E-4i       -3.466073698732461E-5+0.004826553451845986i          -2.7828669629840346E-5+0.003875179098742126i         -7.482676356683233E-8+1.0419725917953765E-5i         -6.479088109388744E-8+9.022215993205881E-6i          -1.5423251309289207E-14+2.1476803113354143E-12i
1255.943215754791                                 -0.06397343666404971-5.108514835764628E-4i        1.0308377629256837+0.008231619587218032i          2.0050645348656113+0.016011179540020657i          0.015563803472127668+1.2428270880295494E-4i       0.015793021194633192+1.2611309682537174E-4i       -3.8916755942247396E-5+0.004873507651726091i         -3.3395377142811435E-5+0.004182070794356311i         -9.952430358541832E-8+1.2463332322231649E-5i         -8.696830179412626E-8+1.0890956356401504E-5i         -2.081738795513162E-14+2.607022640349303E-12i
1409.1914656322274                                -0.4524026186574549-0.003997798482214805i         0.8067329677225203+0.007128950398004053i          2.0050830081162108+0.017718548616023778i          0.017014325191033866+1.5035245266449085E-4i       0.017331914811955434+1.531589335510504E-4i        -4.197766472430562E-5+0.004750315779785372i          -3.944566063677866E-5+0.004463786825925379i          -1.348456465942951E-7+1.525952946613124E-5i          -1.19213565059641E-7+1.349055720183696E-5i           -2.8729998822864863E-14+3.2512561475208604E-12i
1581.1388300841895                                -0.8671417502697885-0.008407191674137848i         0.5400800698553325+0.005236233477775466i          2.0051174239232625+0.019440197052318513i          0.01927997904630979+1.8692500865683757E-4i        0.019736977828480644+1.9135574486813043E-4i       -4.2625675696108263E-5+0.0043965338274708065i        -4.55263931292867E-5+0.0046957221609555564i          -1.8768964333767322E-7+1.9358845650168072E-5i        -1.6841499061925452E-7+1.7370802941540535E-5i        -4.0937957096449147E-14+4.222373339278388E-12i
1774.0669461678763                                -1.2822968100673307-0.01340141513918674i          0.22792650524736474+0.0023820832217593887i        2.0051814996342494+0.020956356969890014i          0.023173996239908474+2.421938052545426E-4i        0.023873316449048186+2.49502472296236E-4i         -3.9177376378767956E-5+0.0037486357757306613i        -5.0629517099115E-5+0.004844418863852158i            -2.721516198589512E-7+2.6040470393879696E-5i         -2.4889298702146713E-7+2.381499865082452E-5i         -6.114765608676118E-14+5.850871993408234E-12i
1990.5358527674864                                -1.655271613173395-0.017794873508474564i          -0.12984720737669295-0.001395912677920536i        2.0053195394934638+0.02155803751973387i           0.03111400529897736+3.3448878366486745E-4i        0.032313477861633105+3.473836236144926E-4i        -2.9582474391282234E-5+0.0027517492473070975i        -5.2310522522318144E-5+0.004865902698197454i         -4.2048102519972447E-7+3.911296726562934E-5i         -3.940731033160428E-7+3.665651353213917E-5i          -9.811431361197994E-14+9.126670841870273E-12i
2233.417960754817                                 -1.9235032377706058-0.016909514663323702i         -0.5302476250024948-0.00466140623799394i          2.0057523498282297+0.01763256651138279i           0.054955457938535915+4.831133650910338E-4i        0.057674736587579406+5.070185404464809E-4i        -1.2100555183726838E-5+0.0013764710463820841i        -4.134184480904367E-5+0.004702747176279798i          -6.792670047980634E-7+7.72684674211691E-5i           -6.570981566956191E-7+7.47467007147938E-5i           -1.6632073302588234E-13+1.8919110139188862E-11i
2505.936168136362                                 -1.7925212142873348+0.5416448791864209i           -1.370526692328351+0.41413109019119265i           1.8621902230798857-0.5626967147332973i            1.912845737092673-0.5780032559044671i             2.03514540186669-0.6149584599047893i              -5.043310564089118E-4-0.0016690347384071557i         9.87535273380961E-4+0.0032681522441590886i           9.091738123841145E-4+0.0030088225862567666i          9.166336557829655E-4+0.0030335102147416547i          2.368082742881851E-10+7.836832436887113E-10i
2811.706625951745                                 -1.8167719772088304-0.05140506592278675i          -1.3312556607960158-0.03766751463178728i          2.0031139734791696+0.056677561739003325i          -0.04504000090977555-0.0012743945008055289i       -0.04879748934627327-0.0013807116079011846i       5.825835273177777E-5-0.0020589826872042445i          -1.0311152063175676E-4+0.003644195718144707i         2.2454622776715067E-6-7.93597453263636E-5i           2.3908819492164566E-6-8.449920734890913E-5i          6.334737263672292E-13-2.2388641992632752E-11i
3154.7867224009647                                -1.2809549387387795-0.03432637851737691i          -1.6991495780868795-0.045532945671962914i         2.0036964264997272+0.05369403712746943i           -0.019385432642997615-5.194809584421404E-4i       -0.021528027715574598-5.768971307996732E-4i       1.005018191028554E-4-0.003750418926424877i           -6.929706408002655E-5+0.002585953433422111i          1.0292426680366204E-6-3.840817279298123E-5i          1.1790927278656108E-6-4.400011643243609E-5i          3.222522223513671E-13-1.2025480622936608E-11i
3539.72892192069                                  -0.40035409468304783-0.011316430257599685i        -1.9457890549088261-0.054999777702505324i         2.0037778833010016+0.0566388930335054i            -0.01102810215956398-3.117209266473623E-4i        -0.01268511518569625-3.585581456446949E-4i        1.3506374152869228E-4-0.004778301993288221i          -3.3047880178270116E-5+0.0011691720625970332i        7.015220316412986E-7-2.4818534691669675E-5i          8.885409127073318E-7-3.1434912194328595E-5i          2.532129020003353E-13-8.958197337060597E-12i
3971.6411736214104                                0.6879226314056701+0.021115764182132107i          -1.9914623850972315-0.06112787708119251i          2.0037169652817783+0.06150403104563963i           -0.006850211960378633-2.102670468835877E-4i       -0.008321028213900338-2.554137068592426E-4i       1.4060460716552E-4-0.004580705208751271i             1.682104556660107E-5-5.480065908291873E-4i           5.522096178525431E-7-1.7990231873772287E-5i          8.064477020400704E-7-2.6272959913654838E-5i          2.088624696853485E-14-6.804522606084707E-13i
4456.2546906687285                                1.6517274009740028+0.05566922637327822i           -1.7485337548641915-0.0589319529274316i           2.0035183150619327+0.06752586085571355i           -0.004183759654281097-1.4100793097067556E-4i      -0.005636024380360965-1.899545390858586E-4i       9.308468939723554E-5-0.0027618586207840707i          8.028349054343625E-5-0.0023820421044993437i          4.694401875128654E-7-1.3928471278932233E-5i          8.562866185486827E-7-2.5406353972599672E-5i          3.1198253915249835E-13-9.25664675623361E-12i
4999.999999999999                                 1.9952133340229268+0.07406818418540116i           -1.1545037400469182-0.04285857269909198i          2.0031803647346393+0.07436394384299105i           -0.0017587036913035725-6.52882510426794E-5i       -0.003465703321566706-1.2865709534627724E-4i      -1.6627890610062585E-5+4.4791412578158474E-4i        1.4793475149787772E-4-0.003984995606044358i          4.064630341400861E-7-1.0949106877659456E-5i          1.177703223958629E-6-3.172440636956584E-5i           4.186979528622595E-13-1.1278686127539867E-11i
5610.0922715098195                                1.2899057241992073+0.05190215833962743i           -0.22500723291512043-0.00905365471803448i         1.9978045098420174+0.08038600356044989i           0.003476597692626912+1.3988845911649337E-4i       0.004480763640671666+1.802932570219557E-4i        -1.502021857246079E-4+0.0037329209998227864i         1.9495411970934547E-4-0.0048451248017910165i         4.579660226694574E-6-1.1381665276537507E-4i          -3.1636257713920493E-7+7.862445641785288E-6i         -4.747878832514526E-13+1.1799721001433534E-11i
6294.6270589708365                                -0.3400986187570797-0.016315680727793384i         0.8637313911185254+0.041436115359093625i          2.003978085415788+0.09613760479037327i            -0.006830205122416848-3.2766803463315564E-4i      -0.006792204286569124-3.2584500604562316E-4i      -2.3065550066861322E-4+0.004807989227381801i         2.1102406428816648E-4-0.00439877404113606i           -8.896292800987573E-7+1.8544227155962508E-5i         -1.1828676407976233E-6+2.4656749409074106E-5i        -1.638259501775339E-13+3.4149610281507314E-12i
7062.687723113769                                 -1.828324861696021-0.096410032107673i             1.762495682330202+0.09293877088261311i            2.0022544680066745+0.10558157453454678i           -0.003367188827419918-1.7755640146382585E-4i      -0.004466346602557269-2.355164711828354E-4i       -1.0490501440167275E-4+0.001989424171335766i         1.2199113743735152E-4-0.002313446271927261i          -2.2592515289443377E-8+4.2844563437364947E-7i        6.896490719814401E-8-1.3078540851690263E-6i          2.1479177296746583E-13-4.073321115146951E-12i
7924.4659623055695                                -1.5577637366777501-0.09215021178650398i          1.9567806008269162+0.11575423318545335i           1.9847544832548143+0.11740904073428758i           -0.0198787152280788-0.0011759343060563407i        -0.002588281926722464-1.5311097706555602E-4i      1.8130045238300604E-4-0.0030648141072853134i         -6.0688103036534165E-5+0.0010259089404758034i        1.465511986941404E-5-2.4773914071306465E-4i          -1.617014651256499E-5+2.7335008092212165E-4i         -5.8487161591610244E-12+9.887027763884786E-11i
8891.397050194613                                 0.6715675048458135+0.04365201396026514i           1.071215792975455+0.06962922778948587i            2.000438027002563+0.13002884757142824i            -0.0031943696866712132-2.0763462975003144E-4i     -0.0038710204462586552-2.5161705624380094E-4i     2.9895634733489204E-4-0.0045993151373422934i         -2.67693967145563E-4+0.004118356822188957i           -8.829903891546344E-8+1.3584428262102705E-6i         -7.303853948511967E-7+1.1236665905485007E-5i         4.444228574239665E-13-6.837260970924008E-12i
9976.311574844403                                 1.9759460671292772+0.14598713647562123i           -0.6357876829260866-0.046973358569469145i         2.0003519987624547+0.14779029891012763i           -1.4465637546759046E-4-1.068752348767588E-5i      -0.003943150515363572-2.913284230343644E-4i       -5.535886286855388E-5+7.492860860789989E-4i          -3.4150818742155085E-4+0.0046223371245623255i        -1.1911191376421054E-6+1.6121880565343285E-5i        1.8278511592277077E-6-2.474009286654122E-5i          3.3401101512968785E-11-4.520862360617681E-10i
11193.605692841687                                -0.2715703844207961-0.022248543595569076i         -1.9370315476245232-0.15869230613987945i          1.9991159167456545+0.16377860002247296i           -0.0010370074253779054-8.495736686339048E-5i      -0.004903004054173353-4.0168112972867163E-4i      -3.9659526021395706E-4+0.0048409248565558114i        -9.819869845327572E-5+0.0011986338938953507i         -1.6890592809823153E-6+2.0617011578317057E-5i        1.2171852386174019E-6-1.4857218121400475E-5i         3.2242876908240997E-12-3.9356325801794134E-11i
12559.43215754791                                 -1.9014270531509343-0.1669306993591593i           -1.2797069908930054-0.11234844997712283i          1.9972938578977801+0.17534706825901572i           -3.502767360988975E-4-3.075160848725859E-5i       -0.012405883937555312-0.0010891413744703363i      1.315312525749345E-4-0.0014982090997071916i          3.2882130930342643E-4-0.003745444893595366i          -2.722127262065316E-6+3.100643834493971E-5i          3.0935385619862586E-6-3.523700527390022E-5i          3.5069639817511946E-12-3.994614057066927E-11i
14091.914656322273                                1.2645522438473038+0.13503885969636087i           1.0476780269060957+0.11187931939347687i           1.9900125188371298+0.21250922561536661i           -0.003567071351924882-3.809200010239956E-4i       0.004324032684898203+4.6175429988760665E-4i       4.0372142260913E-4-0.003780591918651459i             4.4274756434754846E-4-0.004146046804249769i          2.42890517768094E-6-2.2745138224745004E-5i           -3.009294849230068E-6+2.8180115030264046E-5i         3.2173026463293658E-12-3.012797521695806E-11i
15811.388300841894                                0.518362842882784+0.06271222193202565i            1.8406123488175474+0.22267972249366882i           1.995280442877677+0.2413916735930522i             0.0025235311292733705+3.053001420595441E-4i       0.006075837660606309+7.35062896350567E-4i         -5.715278498833309E-4+0.004724099616618129i          -2.24575728824291E-4+0.0018562842412849505i          -4.65299891886266E-6+3.846047216687615E-5i           3.872954691734857E-6-3.201283059000174E-5i           -9.41607726848684E-13+7.783088734874352E-12i
