% Model:              Three_mic_technique_surogate_same_radius.mph
% Version:            COMSOL 6.2.0.290
% Date:               Mar 19 2026, 17:30
% Table:              Table 13 - Point Evaluation 2
% l_load (m)                                      freq (Hz)                                         Total acoustic pressure (Pa), Point: 6            Total acoustic pressure (Pa), Point: 7            Total acoustic pressure (Pa), Point: 8            Total acoustic pressure (Pa), Point: 9            Total acoustic pressure (Pa), Point: 10           Total acoustic pressure (Pa), Point: 11           Total acoustic velocity, z-component (m/s), Point: 6 Total acoustic velocity, z-component (m/s), Point: 7 Total acoustic velocity, z-component (m/s), Point: 8 Total acoustic velocity, z-component (m/s), Point: 9 Total acoustic velocity, z-component (m/s), Point: 10 Total acoustic velocity, z-component (m/s), Point: 11
0.011                                             49.99999999999999                                 2.0010248203406253+6.549197669309088E-4i          2.003416298905526+6.557024791540906E-4i           2.005103525732228+6.562546952929749E-4i           0.004375400682805625+1.4320344087124886E-6i       0.004375797876511436+1.4321644071046094E-6i       0.004376017575980369+1.4322363130217793E-6i       -1.0173566285253114E-7+3.108404965718822E-4i         -6.545197163716372E-8+1.999802516260665E-4i          -1.2413167723783146E-10+3.7926870176732924E-7i       -1.0471043418256786E-10+3.199295369031725E-7i        -3.499547576811444E-11+1.0692426637370966E-7i         -1.0864905886516835E-18+3.317127967154503E-15i
0.011                                             56.10092271509817                                 1.9999691171763985+7.344396452049737E-4i          2.0029794366293934+7.355451112514706E-4i          2.0051034525196147+7.363251040340778E-4i          0.004375756707575136+1.6068894145508225E-6i       0.004376256801305815+1.6070730617176584E-6i       0.0043765334185558325+1.607174642623691E-6i       -1.280542926001936E-7+3.4870752285746763E-4i         -8.239263878427249E-8+2.243652478816369E-4i          -1.5628702433028435E-10+4.2558871093012245E-7i       -1.3183718707321297E-10+3.590088094647655E-7i        -4.406141510599864E-11+1.199846305263567E-7i          -1.4957216534232602E-18+4.082983655470852E-15i
0.011                                             62.94627058970836                                 1.9986403287215488+8.23500673606321E-4i           2.002429504180781+8.250619292765566E-4i           2.005103359984223+8.261636392859168E-4i           0.004376205016009512+1.8031297211113116E-6i       0.004376834686252688+1.8033891644248248E-6i       0.004377182977475376+1.803532671013967E-6i        -1.6117385583799875E-7+3.911697671748394E-4i         -1.0371587077880514E-7+2.5171894657387083E-4i        -1.9677670359795186E-10+4.775780617807316E-7i        -1.6599627328960204E-10+4.0287380064224524E-7i       -5.5477521687877784E-11+1.3464422766972997E-7i        -2.0937658485024063E-18+5.08438570235927E-15i
0.011                                             70.6268772311377                                  1.9969679009947439+9.232003813857E-4i             2.0017372518056304+9.254052573326246E-4i          2.005103243831117+9.269613590206527E-4i           0.004376769565292405+2.0233852181156784E-6i       0.0043775624151120565+2.0237517534293007E-6i      0.004378000968220174+2.0239544969969215E-6i       -2.028473140051492E-7+4.387775191697697E-4i          -1.3055419629150963E-7+2.824008141571387E-4i         -2.477636513171161E-10+5.35935717079294E-7i          -2.0901352910563094E-10+4.521156153237221E-7i        -6.985393037390275E-11+1.5110051894231377E-7i         -2.9633963568721775E-18+6.41416940883768E-15i
0.011                                             79.24465962305565                                 1.9948631007230628+0.0010347428156104333i         2.000865870499426+0.0010378564743389242i          2.0051030975389974+0.0010400543395637349i         0.004377480545947007+2.2706152335787658E-6i       0.004378478909791588+2.2711330885710064E-6i       0.004379031142975731+2.271419533951457E-6i        -2.5527686213291296E-7+4.92143924806672E-4i          -1.6433208529905312E-7+3.1681303631983905E-4i        -3.1197375557045517E-10+6.014489045489157E-7i        -2.631904744472366E-10+5.074004458071496E-7i         -8.795970487897867E-11+1.6957602117813657E-7i         -4.254777957149619E-18+8.206088498940274E-15i
0.011                                             88.91397050194612                                 1.992214363337407+0.0011594401638325385i          1.999769046185866+0.0011638368808168705i          2.005102914265362+0.0011669411154784557i          0.004378376024100918+2.548152000178216E-6i        0.004379633246577903+2.54888368561404E-6i         0.004380328669186426+2.54928841159032E-6i         -3.2122749796683226E-7+5.519508918355242E-4i         -2.0684076015134234E-7+3.554052603554847E-4i         -3.9284330402218835E-10+6.750051414426467E-7i        -3.31429164227393E-10+5.694799628292346E-7i          -1.1076453452817781E-10+1.903217634847161E-7i         -6.180064561500579E-18+1.062110524018287E-14i
0.011                                             99.76311574844398                                 1.9888814619314599+0.001298710322391896i          1.998388510078783+0.0013049182849136894i          2.00510268398957+0.0013093025416586067i           0.00437950400719981+2.859751659412067E-6i         0.004381087322449765+2.8607855409671455E-6i       0.004381963128330446+2.861357429317168E-6i        -4.041685009847996E-7+6.189549906685701E-4i          -2.6033199037477197E-7+3.986797214706334E-4i         -4.947057004055881E-10+7.576062033591061E-7i         -4.173904684488825E-10+6.392034857682792E-7i         -1.394915852173658E-10+2.1362133121443826E-7i         -9.095446502602839E-18+1.3932062300768301E-14i
0.011                                             111.93605692841699                                1.9846882200745875+0.0014540671798976001i         1.996650968144386+0.0014628315990088522i          2.0051023949843825+0.0014690234745221458i         0.004380925074745593+3.2096524302311697E-6i       0.004382919248151119+3.211113446662207E-6i        0.004384022331064088+3.211921612219013E-6i        -5.084488943327565E-7+6.939930565114228E-4i          -3.2763537878734646E-7+4.471967222319782E-4i         -6.230279561678799E-10+8.503845367566259E-7i         -5.256947934611901E-10+7.175323660138791E-7i         -1.7568450630738573E-10+2.3979564007583145E-7i        -1.3538261957781633E-17+1.8479967686953272E-14i
0.011                                             125.59432157547896                                1.9794134119739943+0.0016271009935368125i         1.9944642459237023+0.001639472955223941i          2.005102032889017+0.0016482173406240212i          0.004382715713180502+3.602643615637541E-6i        0.00438522765270132+3.6047084593257437E-6i        0.004386617158700981+3.6058506495215445E-6i       -6.395144549808811E-7+7.779870387055637E-4i          -4.1230495528738285E-7+5.015803945542044E-4i         -7.84711081374735E-10+9.546227604403941E-7i          -6.621774146056564E-10+8.055571601121912E-7i         -2.2129264367924003E-10+2.692086284777203E-7i         -2.0348020815564345E-17+2.4753754760658182E-14i
0.011                                             140.91914656322274                                1.9727794280479245+0.0018194436343136524i         1.9917124558650574+0.0018369050780425145i         2.0051015793903653+0.0018492535216753925i         0.004384972564341108+4.044147209501091E-6i        0.0043881371683171045+4.047065842206521E-6i       0.004389887733078771+4.048680342979802E-6i        -8.041746446571036E-7+8.719474230879353E-4i          -5.188019636481274E-7+5.625246211585079E-4i          -9.884722820829308E-10+1.0717769707804318E-6i        -8.34213988654107E-10+9.04518372734717E-7i           -2.787796351773597E-10+3.022741231785446E-7i          -3.086734695421696E-17+3.3469863263493553E-14i
0.011                                             158.11388300841895                                1.9644381999690594+0.0020327115116180582i         1.9882499481445108+0.002057350828178968i          2.0051010123257815+0.0020747875447655203i         0.004387817855569039+4.540314816795492E-6i        0.004391805442325004+4.544440990631168E-6i        0.004394011305035143+4.546723517271137E-6i        -1.0109286149700469E-6+9.769742378036967E-4i         -6.527220933399314E-7+6.307989140517294E-4i          -1.245332416018531E-9+1.20350504843574E-6i           -1.0511366922537513E-9+1.0158318383251626E-6i        -3.512621782663123E-10+3.394642265966509E-7i          -4.7186495667986256E-17+4.560205878810737E-14i
0.011                                             177.40669461678763                                1.953953784230294+0.0022684169373644618i          1.9838937461489288+0.002303175342262359i          2.0051003044674265+0.002327794817124975i          0.004391406353251847+5.098145427544824E-6i        0.004396432122315451+5.1039800280145645E-6i       0.004399212365891858+5.1072077152145925E-6i       -1.2703600288027878E-6+0.0010942542058923095i        -8.210771461119208E-7+7.072539312954226E-4i          -1.5692399965828915E-9+1.3517014360050371E-6i        -1.32476850238412E-9+1.1411202172700722E-6i          -4.4268809623382047E-10+3.813197065338071E-7i         -7.263995359679316E-17+6.256961878911252E-14i
0.011                                             199.05358527674863                                1.9407809174344586+0.0025278339831917105i         1.978414106941504+0.0025768505695394368i          2.0050994228766563+0.0026116077375784937i         0.004395934320119319+5.725629339536589E-6i        0.004402270435550589+5.73388202162193E-6i         0.004405775681353157+5.738447544386364E-6i        -1.5956092883609248E-6+0.001225051987260659i         -1.0326425123283023E-6+7.928261490868316E-4i         -1.977873069983934E-9+1.518540512541603E-6i          -1.6701121985111705E-9+1.2822526741640682E-6i        -5.580658161889654E-10+4.2846306122496946E-7i         -1.1245896457567724E-16+8.634397969504291E-14i
0.011                                             223.34179607548148                                1.9242387768844609+0.00281180018950433i           1.9715227684424068+0.0028808940764719366i         2.0050983280636934+0.0029299564724916387i         0.004401651107717325+6.43192703928917E-6i         0.004409642186012245+6.443604028514436E-6i        0.00441406317830979+6.450064217930451E-6i         -2.0029290196189704E-6+0.0013706925847442593i        -1.2983833910238867E-6+8.885409701370233E-4i         -2.4936748311144976E-9+1.7065315756922415E-6i        -2.10624411308172E-9+1.4413956621141407E-6i          -7.037617965555656E-10+4.816152099466595E-7i          -1.750112737196928E-16+1.197660106046972E-13i
0.011                                             250.5936168136362                                 1.9034791419866366+0.003120428263143196i          1.9628583609995558+0.003217770329751718i          2.005096973496755+0.0032870133055893417i          0.004408874263853701+7.227594754524212E-6i        0.004418957314802706+7.2441241907900874E-6i       0.004424535978835997+7.253269455656186E-6i        -2.5123219479472265E-6+0.0015325307941895395i        -1.6319735291215363E-6+9.955132151445866E-4i         -3.1451993532983166E-9+1.9185896479771215E-6i        -2.6574815627796587E-9+1.6210789988541424E-6i        -8.87888646874784E-10+5.416171682736164E-7i           -2.735119204375328E-16+1.6684432155034342E-13i
0.011                                             281.1706625951745                                 1.877448191196563+0.0034526929097324715i          1.9519683688574034+0.003589738123812857i          2.005095305264735+0.003687440418617172i           0.004418009382292139+8.124873826854317E-6i        0.004430739625818868+8.148285190092783E-6i        0.004437783392932312+8.161238924254572E-6i        -3.1482475851797386E-6+0.0017119019449828798i        -2.0504200574971665E-6+0.0011149434741640329i        -3.968873383961436E-9+2.158128263633597E-6i          -3.354920812189583E-9+1.824283298543994E-6i          -1.1208158265114325E-9+6.094586750352961E-7i          -4.290526699352884E-16+2.3330429297003344E-13i
0.011                                             315.47867224009644                                1.8448413595196165+0.0038058457029245853i         1.9382869386325763+0.003998620791271067i          2.0050932631805964+0.004136439992856648i          0.00442957644155283+9.13806728131451E-6i          0.004445660961377668+9.17124910496885E-6i         0.004454561456087187+9.189610526329504E-6i        -3.940360650890058E-6+0.0019100459752843454i         -2.5748051273652075E-6+0.0012481081373832748i        -5.011323322082298E-9+2.4291832219792056E-6i         -4.238483388848965E-9+2.0545576640213863E-6i         -1.4158481886226583E-9+6.863166562551968E-7i          -6.752754230778979E-16+3.273336630991381E-13i
0.011                                             353.97289219206897                                1.8040511306697973+0.00417459717031387i           1.921107756558809+0.004445467685772019i           2.0050907829177476+0.004639805472685512i          0.004444245174529997+1.028403963472128E-5i        0.0044645871575701105+1.0331111241173657E-5i      0.004475844783731697+1.0357161530726128E-5i       -4.924205003977062E-6+0.0021279939602815213i         -3.2311484730913002E-6+0.0013963400103253597i        -6.332482350923349E-9+2.7365806756627326E-6i         -5.359671963635259E-9+2.31618090823176E-6i           -1.7901382971033656E-9+7.736078205868362E-7i          -1.0660042856534415E-15+4.60674100730279E-13i
0.011                                             397.16411736214064                                1.753108532060541+0.004549988013831939i           1.8995511873209125+0.004930062786510279i          2.005087801052123+0.0052039707156271205i          0.004462883245634688+1.1582891135918946E-5i       0.004488640736935496+1.164974168997802E-5i        0.004502897363906985+1.1686743096711591E-5i       -6.141720545925193E-6+0.002366402418933892i          -4.051380244743008E-6+0.0015609951612073464i         -8.00979233099031E-9+3.0861697283216503E-6i          -6.785333962905337E-9+2.614386417323903E-6i          -2.2659299496808855E-9+8.730618883959494E-7i          -1.6876315417486075E-15+6.502444481157179E-13i
0.011                                             445.6254690668729                                 1.6896207115911115+0.004917855191062037i          1.872524923008268+0.005450221076679387i           2.005084264210093+0.0058360518373019i             0.004486622990075619+1.3058884762046189E-5i       0.0045192879059683545+1.3153960139083386E-5i      0.004537370875989835+1.3206592914823264E-5i       -7.641314810375712E-6+0.0026253159573762556i         -5.074386425869237E-6+0.0017433999314399196i         -1.0143972745686933E-8+3.4851506977936668E-6i        -8.602886235600025E-9+2.955681734616787E-6i          -2.872280637346318E-9+9.868254890276461E-7i           -2.679347811092253E-15+9.205403422958712E-13i
0.011                                             499.99999999999994                                1.61070972888718+0.005256786803680856i            1.8386776104197573+0.00600079333138407i           2.0050801445759303+0.00654387234188115i           0.004516955720119379+1.4741745703457943E-5i       0.004558461719818878+1.487720660470444E-5i        0.004581444008042711+1.4952212664022274E-5i       -9.477084160890584E-6+0.0029038331133789427i         -6.347040483124246E-6+0.0019447697303140317i         -1.2867082482279611E-8+3.942548120655626E-6i         -1.0927705921327275E-8+3.3483119816369132E-6i        -3.647492077256306E-9+1.1176125632526761E-6i          -4.2665001776924156E-15+1.3072808531066383E-12i
0.011                                             561.0092271509814                                 1.5129622089870718+0.0055354639076386205i         1.7963454273103605+0.0065722760430570945i         2.0050754646279763+0.007335955123301129i          0.004555868108886142+1.6668521750959955E-5i       0.004608740560669156+1.6861965808493754E-5i       0.004638024534305966+1.69691068713721E-5i         -1.1706514521011608E-5+0.003199644019843177i         -7.925051173139578E-6+0.0021660881774908805i         -1.6354020001825225E-8+4.469907967791529E-6i         -1.3913813923612388E-8+3.8029467804425437E-6i        -4.642613762027589E-9+1.268926920833818E-6i           -6.816020039083118E-15+1.8629655862019787E-12i
0.011                                             629.4627058970837                                 1.392406663440374+0.005709328764861933i           1.7434925544111106+0.007148897269579865i          2.0050703346165224+0.008221452855757722i          0.004606044812234981+1.8886310181502833E-5i       0.004673613855803899+1.9163365652635096E-5i       0.004711050462891328+1.931686814825089E-5i        -1.4385614065389461E-5+0.0035084027591289835i        -9.873315928814416E-6+0.002407931203947842i          -2.0839325863036212E-8+5.0823515999133795E-6i        -1.7769703987742518E-8+4.333723849767805E-6i         -5.926618054441254E-9+1.4453997674192579E-6i          -1.0929929907207251E-14+2.665620703942818E-12i
0.011                                             706.2687723113777                                 1.2445462605690725+0.00571663720915722i           1.6776482339756509+0.007706026384831094i          2.005065006582884+0.009209966386942572i           0.004671179059622801+2.1456362753961234E-5i       0.004757890250023081+2.185465764531708E-5i        0.004805953085556853+2.2075427095820625E-5i       -1.7559893878448778E-5+0.0038228943630658056i        -1.2265237050660004E-5+0.0026702157830443217i        -2.6642422984983833E-8+5.800215524509632E-6i         -2.2782466729641518E-8+4.959879861016845E-6i         -7.594260910598801E-9+1.6533162188615283E-6i          -1.76051543500047E-14+3.832748161334269E-12i
0.011                                             792.4465962305569                                 1.0644910636430724+0.005474219852426447i          1.5958460585125929+0.008206750133430722i          2.0050599478299755+0.010311161221732682i          0.0047564663752133135+2.4460461490767245E-5i      0.004868347789248424+2.503581949893054E-5i        0.004930395274079489+2.5354903035653973E-5i       -2.1248898591984215E-5+0.004131960931158895i         -1.5180080502609331E-5+0.002951847106848639i         -3.4206778476132174E-8+6.651689367763741E-6i         -2.935576737586086E-8+5.7083845492680885E-6i         -9.77841248132839E-9+1.9014641317365878E-6i           -2.851251284784782E-14+5.544409272804657E-12i
0.011                                             889.1397050194613                                 0.8472567153306187+0.0048738155358515715i         1.4945759371719671+0.008597497422962817i          2.0050559346126393+0.011534016306556613i          0.004869423551824779+2.8011193942640945E-5i       0.005014814540284922+2.8847550676025362E-5i       0.005095499623749242+2.9311688883996675E-5i       -2.5421135836444333E-5+0.004419171753222206i         -1.8696847582829773E-5+0.003250231680632435i         -4.4163014797151555E-8+7.677231638670784E-6i         -3.807192450448644E-8+6.6183657228274495E-6i         -1.2670136299958446E-8+2.2025573144147766E-6i         -4.6495406527268266E-14+8.082691631585558E-12i
0.011                                             997.6311574844393                                 0.5883270121886763+0.0037808554215567323i         1.3697667297190026+0.008802740422321475i          2.0050541638580897+0.012885384755080371i          0.0050213175325126026+3.2269257135357385E-5i      0.005212057318160847+3.349503725166608E-5i        0.005317996704453303+3.41758516544395E-5i         -2.9955449803015764E-5+0.0046612732376854725i        -2.2882142253783377E-5+0.0035606181325593066i        -5.7435286533059065E-8+8.937324154785915E-6i         -4.9797965703688575E-8+7.74890469968134E-6i          -1.6552856411592923E-8+2.5757378846393718E-6i         -7.649018212211293E-14+1.1902397094101469E-11i
0.011                                             1119.36056928417                                  0.28461425339962265+0.0020393993269494093i        1.2168289511081007+0.008719170316812106i          2.0050563837882924+0.014367202628718724i          0.005229815315114911+3.7474166288066806E-5i       0.0054832897934331895+3.929043401033751E-5i       0.005624217850585042+4.0300251973335043E-5i       -3.458464263411642E-5+0.004826559492261891i          -2.7767868981893252E-5+0.003875225011099477i         -7.54304637353987E-8+1.0526915834178934E-5i          -6.587659001118836E-8+9.193597442561408E-6i          -2.1863626129896794E-8+3.0512413778372694E-6i         -1.2729383699624847E-13+1.776485757070049E-11i
0.011                                             1255.943215754791                                 -0.06401357332953221-5.098836193302699E-4i        1.0308034266294233+0.008210598914747647i          2.005065079116252+0.01597082890616804i            0.005524284323918461+4.4002262412956067E-5i       0.005867198409331867+4.673365614410938E-5i        0.006058096023699169+4.825420187073468E-5i        -3.881859761707885E-5+0.00487349871886499i           -3.331160045229737E-5+0.004182120238642164i          -1.0039705173211453E-7+1.2604394152111137E-5i        -8.849250835490457E-8+1.1109832764991847E-5i         -2.9310174648849305E-8+3.6797593911053926E-6i         -2.1514118190786582E-13+2.700999888164871E-11i
0.011                                             1409.1914656322274                                -0.45245510602104255-0.0039860838142968865i       0.8066838171599148+0.007106802991893475i          2.0050839018970086+0.017664586756144594i          0.005957472179766139+5.248472847806171E-5i        0.0064334399480049055+5.667795646579211E-5i       0.006698820852878211+5.901593544668343E-5i        -4.184948314005955E-5+0.004750279517672785i          -3.932596602315824E-5+0.004463838440610902i          -1.361617111682502E-7+1.5455535919964995E-5i         -1.214317048878288E-7+1.3783552370156027E-5i         -4.0112465520784484E-8+4.553112959358951E-6i          -3.714545357831017E-13+4.216331372264757E-11i
0.011                                             1581.1388300841895                                -0.8672119030132762-0.008374298974190762i         0.540005517074571+0.005214605136271871i           2.0051191261638115+0.019362588276457975i          0.006634805030153877+6.406950909656156E-5i        0.007321544838878472+7.070106529483479E-5i        0.007705169704003222+7.440556854309482E-5i        -4.2454612537667524E-5+0.004396445047146145i         -4.534508504937254E-5+0.00469577186747148i           -1.8979128254958637E-7+1.9654094028492625E-5i        -1.7181111400034031E-7+1.7792133254645838E-5i        -5.655057590140077E-8+5.856171691330574E-6i           -6.612039633134448E-13+6.847187468388299E-11i
0.011                                             1774.0669461678763                                -1.2823944183355458-0.013321854413478131i         0.2278014027691561+0.002366461579975687i          2.005185222992725+0.02083039758870846i            0.007802802909762778+8.105759261187226E-5i        0.008858374450196608+9.202315061540931E-5i        0.009449374055326159+9.81626117526925E-5i         -3.8939720052074824E-5+0.0037484330630057788i        -5.0325469652193224E-5+0.0048444532878936086i        -2.7577439954004424E-7+2.654672089123529E-5i         -2.544795442146883E-7+2.4496825825822098E-5i         -8.335162728533597E-8+8.023632320659765E-6i           -1.2316980380482581E-12+1.1856627753865647E-10i
0.011                                             1990.5358527674864                                -1.6554188490168074-0.017584384816363607i         -0.13010383815039203-0.0013820042927461724i       2.005329390266196+0.021301245721242083i           0.010206543431680605+1.0841714615966254E-4i       0.012033134308745528+1.278197746222983E-4i        0.013058536813544146+1.3871192571922748E-4i       -2.922442732890955E-5+0.0027512289057144033i         -5.1686760153452234E-5+0.00486586468133172i          -4.2716872641869004E-7+4.021426788359862E-5i         -4.0403010994321504E-7+3.803596581272485E-5i         -1.314413429812661E-7+1.2374073874634851E-5i          -2.457678252576124E-12+2.313693051273865E-10i
0.011                                             2233.417960754817                                 -1.9237718749707278-0.0160245117676167i           -0.531141684737139-0.004424269992364155i          2.0057933940491965+0.01670772936710062i           0.01765587763770022+1.470687989024772E-4i         0.02190792640999076+1.8248724247393923E-4i        0.024302078354352084+2.0242989602379193E-4i       -1.1447665542817158E-5+0.001374313140551921i         -3.91677993639153E-5+0.00470216577593618i            -6.793292832118434E-7+8.15547198971553E-5i           -6.634027784600966E-7+7.964271394348401E-5i          -2.1376125488912178E-7+2.5662428660387337E-5i         -5.064717144260257E-12+6.080285335695692E-10i
0.011                                             2505.936168136362                                 -1.8886127190689883-0.5363427834075709i           -0.4305692926557551-0.12227638337065352i          1.8354821270153716+0.5212543487450986i            -0.45387011893274154-0.1288935314471552i          -0.604704311247345-0.17172858689456963i           -0.6898995792720667-0.19592299516298564i          -2.7065785525025917E-4+9.530618923653856E-4i         -0.0012986255783816211+0.004572823314650325i         7.113267317779076E-4-0.0025047800671397138i          7.242811795840371E-4-0.002550396295514071i           2.3014411583493675E-4-8.104017017215262E-4i           6.922175849307397E-9-2.4374914250684196E-8i
0.011                                             2811.706625951745                                 -1.8164887945911743-0.05074861730658552i          -1.3318031306170302-0.037207588419269924i         2.0032000218030888+0.05596490969216278i           -0.011063170911884359-3.0908014888861215E-4i      -0.01633958819970127-4.5649139778878174E-4i       -0.01932807813619605-5.399830948691981E-4i        5.756765819970432E-5-0.0020605685648953666i          -1.0177925543048056E-4+0.003643072200400397i         2.1026486129358928E-6-7.526190554836936E-5i          2.2625092967160293E-6-8.098393613857481E-5i          7.040015099077191E-7-2.519892996796916E-5i            2.6940770111550894E-11-9.643140954814242E-10i
0.011                                             3154.7867224009647                                -1.2808377610012494-0.03422299840019372i          -1.6992356094265582-0.045402266688504056i         2.0037202527540425+0.05353786183623841i           -0.004208807307533448-1.1245608952465674E-4i      -0.007290035210087986-1.947841258392037E-4i       -0.009037111409527126-2.4146465624477956E-4i      1.0021434510640104E-4-0.003750644971337887i          -6.908607538483058E-5+0.0025856312464494387i         9.984406344362879E-7-3.7367867370426103E-5i          1.157157412165852E-6-4.330803776724159E-5i           3.4840594574406115E-7-1.3039520550945397E-5i          1.7011007552640968E-11-6.366578564427771E-10i
0.011                                             3539.72892192069                                  -0.40029588119145015-0.011302733544949397i        -1.9458041876798942-0.054941625394927626i         2.003790149266654+0.05657891397711639i            -0.001855589798987834-5.239433662858551E-5i       -0.004245945697307801-1.1988830090185186E-4i      -0.005596222774865535-1.5801465392557487E-4i      1.3491968093158236E-4-0.004778294739737973i          -3.300859522881751E-5+0.0011690273515567284i         6.86908716012686E-7-2.4327453848681685E-5i           8.819385790987844E-7-3.123460160036193E-5i           2.514218602687766E-7-8.904318084308111E-6i            1.5714670736566037E-11-5.565483712498376E-10i
0.011                                             3971.6411736214104                                0.6879486760098331+0.021107145825030257i          -1.9914595303451563-0.061100526998134286i         2.0037260751133723+0.0614768802899605i            -6.159815068671096E-4-1.889910094440247E-5i       -0.0027202180153964362-8.34597699616495E-5i       -0.003888643841288863-1.1930856961457742E-4i      1.405397719308573E-4-0.004580635908505512i           1.6815608076244963E-5-5.480738809833013E-4i          5.419602079177236E-7-1.7664198234406828E-5i          8.062364108120313E-7-2.6277796001201784E-5i          2.0839617054324624E-7-6.79229067743476E-6i            1.6758840116851713E-11-5.462236335014454E-10i
0.011                                             4456.2546906687285                                1.6517360098172922+0.05565867983179109i           -1.748528728254811-0.05892031178844913i           2.0035304016883693+0.06751312348350258i           2.4390447168019498E-4+8.218868403916659E-6i       -0.0017748983945310647-5.980889253273458E-5i      -0.002831421249218124-9.541062729629059E-5i       9.306450222009952E-5-0.0027617972656742893i          8.026864179336075E-5-0.002382065231725406i           4.583353039837415E-7-1.3601632813289163E-5i          8.611591815850585E-7-2.555589953441212E-5i           1.819575207809399E-7-5.3998008963329655E-6i           1.889796598905664E-11-5.60819103513325E-10i