% Model:              Three_mic_technique_surogate_test2remove.mph
% Version:            COMSOL 6.2.0.290
% Date:               Mar 19 2026, 10:43
% Table:              Table 12 - Point Evaluation 2
% freq (Hz)                                       Total acoustic pressure (Pa), Point: 6            Total acoustic pressure (Pa), Point: 7            Total acoustic pressure (Pa), Point: 8            Total acoustic pressure (Pa), Point: 9            Total acoustic pressure (Pa), Point: 10           Total acoustic velocity, z-component (m/s), Point: 6 Total acoustic velocity, z-component (m/s), Point: 7 Total acoustic velocity, z-component (m/s), Point: 8 Total acoustic velocity, z-component (m/s), Point: 9 Total acoustic velocity, z-component (m/s), Point: 10
49.99999999999999                                 2.0010248491844127+6.554232824596293E-4i          2.0034163161844476+6.562065385560726E-4i          2.0051035223391764+6.567590728865867E-4i          -8.680506455805631E-8+6.898150717792155E-5i       3.8315878915930096E-7+6.898046610242894E-5i       -1.018077257280207E-7+3.1083934997162507E-4i         -6.549610512274189E-8+1.999789997661421E-4i          -1.131113469987419E-10+3.783433134354115E-7i         -9.077749239703526E-11+3.171798483472046E-7i         9.308995516031809E-10+1.675910996945615E-7i
56.10092271509817                                 1.9999691533965507+7.350044956446925E-4i          2.0029794582910014+7.361107300616057E-4i          2.005103448152301+7.368911724158349E-4i           -1.0929387952051111E-7+7.740675071511656E-5i      4.824194982469466E-7+7.74052799981957E-5i         -1.281450253443188E-7+3.487062367501995E-4i          -8.244821157590548E-8+2.2436384320569753E-4i         -1.4241013569962937E-10+4.245500429329877E-7i        -1.1429308652979063E-10+3.5592299849792117E-7i       1.1720573893312354E-9+1.8805955847408348E-7i
62.94627058970836                                 1.9986403741528922+8.241343086159725E-4i          2.0024295312854035+8.256966498837028E-4i          2.005103354313711+8.267989951439886E-4i           -1.3761310006502462E-7+8.686342593025138E-5i      6.074112688118325E-7+8.68613482051295E-5i         -1.612881005934008E-7+3.9116832468920413E-4i         -1.0378585291414067E-7+2.517173704410989E-4i         -1.7930179928228324E-10+4.7641214429436927E-7i       -1.4390390659638177E-10+3.994106023461737E-7i        1.4757298604466403E-9+2.1103349532062127E-7i
70.6268772311377                                  1.9969679584802271+9.239110644505187E-4i          2.0017372862221507+9.261174741078502E-4i          2.0051032369760797+9.27674473370222E-4i           -1.732767409344328E-7+9.747878986032442E-5i       7.648140636170334E-7+9.747585449345581E-5i        -2.0299115382340932E-7+4.3877590158905144E-4i        -1.306423202363055E-7+2.823990456426652E-4i          -2.2575619835747189E-10+5.346268039296067E-7i        -1.8119190891721112E-10+4.482286256995266E-7i        1.8581462243111156E-9+2.3682190884559141E-7i
79.24465962305565                                 1.9948631732180189+0.001035539878668883i          2.000865913956944+0.0010386557044126873i          2.005103089022801+0.0010408548380422755i          -2.181934070396865E-7+1.0939620770809712E-4i      9.630477226869124E-7+1.0939206049896766E-4i       -2.5545797834362E-7+4.921421110654532E-4i            -1.6444306764253512E-7+3.168110519457959E-4i         -2.8425558021471093E-10+5.999792542254228E-7i        -2.2815090162197556E-10+5.030374513351427E-7i        2.3397628212630576E-9+2.6577285955004967E-7i
88.91397050194612                                 1.9922144548303122+0.0011603339811553641i         1.9997691011304415+0.0011647337600827392i         2.005102903753867+0.0011678397873167217i          -2.747699500679972E-7+1.2277735930971316E-4i      1.2127285095340297E-6+1.2277149963184925E-4i      -3.214555541454699E-7+5.519488585655971E-4i          -2.0698053872820848E-7+3.5540303376101716E-4i        -3.579284541877114E-10+6.733547094683299E-7i         -2.872943837292855E-10+5.645821708099646E-7i         2.946372243852586E-9+2.982788000245986E-7i
99.76311574844398                                 1.9888815768773764+0.0012997125631517093i         1.9983885790228666+0.001305924852817862i          2.0051026704876236+0.0013103116434855398i         -3.460428902878022E-7+1.378048147453503E-4i       1.527247368032325E-6+1.3779653490260773E-4i       -4.044556992109427E-7+6.18952711660537E-4i           -2.605080707225185E-7+3.986772229537602E-4i          -4.507192325362268E-10+7.557523274585451E-7i         -3.617922886796176E-10+6.337046347284585E-7i         3.7105083582488727E-9+3.3478278929913746E-7i
111.93605692841699                                1.9846883650480334+0.001455190743118565i          1.9966510552230416+0.0014639612777081106i         2.0051023782053585+0.0014701567354899i            -4.358452213892784E-7+1.5468506719992886E-4i      1.9235035992900037E-6+1.5467336657866478E-4i      -5.088105791403335E-7+6.939905029012475E-4i          -3.278572097596781E-7+4.4719391861705273E-4i         -5.676026244081886E-10+8.483015484529431E-7i         -4.5564403427064443E-10+7.113576923119842E-7i        4.673228625710054E-9+3.7578580008393315E-7i
125.59432157547896                                1.979413594535926+0.0016283603231494789i          1.9944643556272994+0.0016407409292414307i         2.0051020117405756+0.0016494903803133281i         -5.490186938258679E-7+1.7365213811306506E-4i      2.4228374220493874E-6+1.736356015882759E-4i       -6.399700019574448E-7+7.779841783197281E-4i          -4.125844868906847E-7+5.015772484575775E-4i          -7.148559372795465E-10+9.522814854720332E-7i         -5.738986094198472E-10+7.986221859620507E-7i         5.886380076117485E-9+4.2185539079299404E-7i
140.91914656322274                                1.9727796580655568+0.0018208547174761273i         1.991712594203675+0.0018383283822902123i          2.005101552833187+0.00185068399113848i            -6.916845974204153E-7+1.9497191135959969E-4i      3.052218328316188E-6+1.949485369481742E-4i        -8.047484701327018E-7+8.719442205547913E-4i          -5.19154282887991E-7+5.625210906695596E-4i           -9.004047672179875E-10+1.0691441918993516E-6i        -7.229344597325377E-10+8.96727474109585E-7i          7.415486086436306E-9+4.736361123298765E-7i
158.11388300841895                                1.9644384898059717+0.0020342920682259232i         1.9882501226348654+0.0020589486662644613i         2.0051009789668908+0.002076395521360855i          -8.715901280144557E-7+2.1894740854440492E-4i      3.845764156980021E-6+2.18914362909965E-4i         -1.0116515339658605E-6+9.76970654224155E-4i          -6.531662867738773E-7+6.307949520771606E-4i          -1.134263250646803E-9+1.2005427716320302E-6i         -9.108167738367283E-10+1.0070765331090533E-6i        9.343436922494689E-9+5.318621493660524E-7i
177.40669461678763                                1.9539541494243853+0.0022701865265233193i         1.98389396624213+0.0023049693756698984i           2.005100262483411+0.0023296032026234644i          -1.0985546308698013E-6+2.459252986104794E-4i      4.846688841583015E-6+2.458785697986492E-4i        -1.2712709527942612E-6+0.001094250198777545i         -8.216373877924694E-7+7.072494848677306E-4i          -1.429096343318717E-9+1.348366011117435E-6i          -1.147754973090632E-9+1.1312770950932434E-6i         1.1775223289613015E-8+5.9737288603606E-7i
199.05358527674863                                1.9407813777412948+0.002529814048637217i          1.9784143847568614+0.0025788652227236395i         2.0050993701051634+0.002613642718749826i          -1.3850436984559955E-6+2.763040503256329E-4i      6.109815108970168E-6+2.762379539002269E-4i        -1.5967573664137924E-6+0.001225047510672829i         -1.033349451544529E-6+7.928211587163095E-4i          -1.8009402190209851E-9+1.51478151778744E-6i          -1.4466908758102031E-9+1.2711808588835913E-6i        1.4844038778502674E-8+6.711323566258438E-7i
223.34179607548148                                1.9242393573071837+0.0028140140787361154i         1.971523119412882+0.0028831569268122606i          2.005098261817065+0.002932248134446848i           -1.7469174696827809E-6+3.105443041277428E-4i      7.70482935617053E-6+3.104507795042918E-4i         -2.0043763830897023E-6+0.0013706875895966237i        -1.299275956059748E-6+8.885353689531861E-4i          -2.270129579474814E-9+1.7022903667639333E-6i         -1.824058804167137E-9+1.4289336545890156E-6i         1.8719189281698417E-8+7.542539347064728E-7i
250.5936168136362                                 1.9034798740664425+0.0031229012144554334i         1.962858804682987+0.0032203126268537186i          2.0050968902913167+0.0032895964742738443i         -2.2044091350004043E-6+3.491822861918447E-4i      9.720531584823186E-6+3.4904989183370046E-4i       -2.514147268553813E-6+0.0015325252287382966i         -1.633101305187991E-6+9.955069278642101E-4i          -2.8624973392749697E-9+1.9137974613541472E-6i        -2.3007738654355427E-9+1.6070406848942764E-6i        2.3616418102720915E-8+8.48032191601838E-7i
281.1706625951745                                 1.8774491150702564+0.003455451740393355i          1.9519689304208367+0.003592595237114214i          2.005095200901966+0.0036903555732858808i          -2.7834177156839976E-6+3.9284745390173894E-4i     1.2270430247693195E-5+3.9265992845244726E-4i      -3.1505505222113727E-6+0.0017118957562075165i        -2.051846325169084E-6+0.001114936416157734i          -3.6109367372733975E-9+2.152703672871038E-6i         -2.9035263427146914E-9+1.808452813963358E-6i         2.9811498389536815E-8+9.539847123041396E-7i
315.47867224009644                                1.8448425260529298+0.0038089184184820777i         1.938287650278463+0.004001832918074138i           2.0050931323148715+0.004139734654669887i          -3.5172342234535316E-6+4.4228611434029224E-4i     1.5500183919818446E-5+4.4202030886371737E-4i      -3.943267713264619E-6+0.0019100391106747932i         -2.5766109659399985E-6+0.0012481002133503624i        -4.557451309364144E-9+2.4230287116028105E-6i         -3.666492236024604E-9+2.0366826673307548E-6i         3.765831353257444E-8+1.0739079497544136E-6i
353.97289219206897                                1.8040526046390366+0.004178012067537411i          1.9211086598799803+0.004449080537482827i          2.005090618946264+0.004643535884519298i           -4.448875990968342E-6+4.983936051403493E-4i       1.9597622163543458E-5+4.98016498292299E-4i        -4.9278770013711145E-6+0.002127986371135172i         -3.2334381488116627E-6+0.0013963311130161206i        -5.755869871798634E-9+2.7295778827483597E-6i         -4.633617310656726E-9+2.295963597995267E-6i          4.7613202842111086E-8+1.2099531816710154E-6i
397.16411736214064                                1.753110396074519+0.004553772263998474i           1.8995523362604494+0.004934128475497159i          2.005087595753384+0.005208204198684574i           -5.634291164503624E-6+5.622589521990126E-4i       2.4806438637397904E-5+5.61723317286151E-4i        -6.146362327248281E-6+0.002366394065263114i          -4.054288518881094E-6+0.0015609851699175269i         -7.2754823455773115E-9+3.0781727514418966E-6i        -5.861704827499047E-9+2.5914712949117987E-6i         6.026823000678059E-8+1.3647317332137404E-6i
445.6254690668729                                 1.6896230712895524+0.004922032480676263i          1.8725263879996052+0.005454799122582935i          2.0050840073435867+0.005840869987672223i          -7.146835129275983E-6+6.352280380880902E-4i       3.144522849692904E-5+6.344661083522117E-4i        -7.647187931014392E-6+0.0026253068155675232i         -5.078088507458448E-6+0.00174338871037652i           -9.20597192832495E-9+3.475976500543065E-6i           -7.4246493047291704E-9+2.929638578249623E-6i         7.639743460333866E-8+1.5414635842067468E-6i
499.99999999999994                                1.6107127197383762+0.0052613735356519965i         1.8386794841127994+0.006005951815525548i          2.005079823292934+0.00654937548602647i            -9.08365110541799E-6+7.189947907955526E-4i        3.993449672560821E-5+7.179089149101326E-4i        -9.484523469382586E-6+0.0029038231878583715i         -6.351765798611333E-6+0.0019447571268729827i         -1.1664207504150997E-8+3.93196247209875E-6i          -9.419337229707698E-9+3.3186116193282377E-6i         9.702245034527194E-8+1.7441916040159386E-6i
561.0092271509814                                 1.512966005320806+0.005540463177040463i           1.7963478327087017+0.00657809294179589i           2.0050750626274105+0.0073422686963048114i         -1.1574977681055912E-5+8.157357733627504E-4i      5.083588627790775E-5+8.14184474647546E-4i         -1.1715950067886847E-5+0.0031996333607089015i        -7.93110278039172E-6+0.002166074020429978i           -1.4803762030832095E-8+4.457604351470391E-6i         -1.1974024566446232E-8+3.768925765453331E-6i         1.2350781149467682E-7+1.9780973764804608E-6i
629.4627058970837                                 1.3924114905279739+0.005714720805292989i          1.7434956566220179+0.007155461951103075i          2.0050698307762764+0.008228736734207948i          -1.4798089513075964E-5+9.283138090032848E-4i      6.491072539002779E-5+9.260906889684526E-4i        -1.4397600287399744E-5+0.0035083914888245004i        -9.881098454701542E-6+0.002407915301486274i          -1.8828519116113094E-8+5.067918758817891E-6i         -1.526048080368871E-8+4.294531544512153E-6i          1.5770319558369007E-7+2.2499785316685375E-6i
706.2687723113777                                 1.2445524110627202+0.005722364226957971i          1.6776522576485888+0.007713441291683281i          2.005064372603103+0.009218428998408723i           -1.899881747193451E-5+0.0010605948891138017i      8.321019624108703E-5+0.0010573961214476104i       -1.757514907932441E-5+0.003822882716853412i          -1.2275298006313504E-5+0.0026701979208157514i        -2.4012568276744364E-8+5.783085948631384E-6i         -1.9512006221671356E-8+4.914396701899817E-6i         2.021624922868524E-7+2.568990968697488E-6i
792.4465962305569                                 1.0644989205684887+0.00548016182160818i           1.5958513145933058+0.008215132848470934i          2.0050591438450938+0.010321081884754451i          -2.4525940498702782E-5+0.0012179579307113675i     1.0721934811193742E-4+0.001213331016584425i       -2.1268360031455522E-5+0.0041319493189157595i        -1.5193173793352017E-5+0.002951827045099925i         -3.073004729118235E-8+6.631054587568104E-6i          -2.5050859833733857E-8+5.655091227175756E-6i         2.604936890510821E-7+2.9478418088605084E-6i
889.1397050194613                                 0.8472667857513454+0.004879750706737182i          1.494582865916631+0.00860698346340297i            2.0050549007173943+0.011545782355205236i          -3.1888400583891765E-5+0.0014081475271052173i     1.3909708925698196E-4+0.001401408123539017i       -2.5446040160420298E-5+0.004419160856140374i         -1.8714035931235174E-5+0.0032502091494788442i        -3.950119645043554E-8+7.65189680517251E-6i           -3.233120780368323E-8+6.555124788374142E-6i          3.3794194143932515E-7+3.4047836254948326E-6i
997.6311574844393                                 0.5883399801110617+0.003786393438999604i          1.3697759742682352+0.008813487744968864i          2.005052803215928+0.012899557262029864i           -4.185509274120814E-5+0.0016427697352490024i      1.82096754174563E-4+0.001632861538353885i         -2.9987459403700156E-5+0.004661264166217493i         -2.2904973385823512E-5+0.003560592822240584i         -5.10656677442124E-8+8.90544503520903E-6i            -4.200843726385224E-8+7.672576881399831E-6i          4.424113584927266E-7+3.967110178850025E-6i
1119.36056928417                                  0.28463107094020373+0.0020438602908053652i        1.2168414935306802+0.008731367316532847i          2.0050545278990852+0.014384641405933273i          -5.563906394496119E-5+0.0019400734919312386i      2.413492928509251E-4+0.0019253205305127348i       -3.462606387946519E-5+0.004826554064809694i          -2.779870358923977E-5+0.0038751965517193816i         -6.65029569680802E-8+1.048549138452468E-5i           -5.5054448493446635E-8+9.099323669072173E-6i         5.863677936938696E-7+4.6776526035185504E-6i
1255.943215754791                                 -0.06399151145213075-5.077103298457662E-4i        1.03082086444121+0.008224478271262589i            2.0050624133072263+0.015992951213381918i          -7.526206386450747E-5+0.002330516608373746i       3.2543596229060517E-4+0.0023081567315705862i      -3.887280030514247E-5+0.004873500013422181i          -3.335428281427289E-5+0.004182088161929426i          -8.743534341706149E-8+1.2548203985146719E-5i         -7.295396499559001E-8+1.0989578652909935E-5i         7.90659764206736E-7+5.607770655017465E-6i
1409.1914656322274                                -0.4524255901137823-0.003988487158311899i         0.8067089926470782+0.0071226600855711945i         2.0050797934823033+0.017693960862073584i          -1.0434264294883578E-4+0.0028690134671765354i     4.4986737487259364E-4+0.0028342417596678438i      -4.192179974020708E-5+0.004750293136236071i          -3.938735606976848E-5+0.004463802124523788i          -1.1636833783303739E-7+1.537466429709966E-5i         -9.80362909432779E-8+1.3622831487875256E-5i          1.0929709439690308E-6+6.8859184121479435E-6i
1581.1388300841895                                -0.8671710101416842-0.008386106654753056i         0.54004416948658+0.005232792211269761i            2.0051121746377873+0.019404495845276423i          -1.500099829158572E-4+0.003665558117528986i       6.45848076253147E-4+0.0036093184359930874i        -4.2554515622105776E-5+0.004396482550390888i         -4.543908570038009E-5+0.004695730531504473i          -1.571820441761563E-7+1.952725359224559E-5i          -1.3395424863572007E-7+1.756149244790357E-5i         1.5691140703591635E-6+8.769003030921885E-6i
1774.0669461678763                                -1.2823339291891342-0.01335525116472013i          0.22786748747751034+0.002387155401854333i         2.005171804205704+0.02089787609377517i            -2.2836490412287395E-4+0.004977119336766462i      9.868719702239715E-4+0.0048800277339524235i       -3.908709894171048E-5+0.0037485235043704665i         -5.048598603798471E-5+0.004844406530350928i          -2.15008194444763E-7+2.631898099367396E-5i           -1.8553476751507595E-7+2.412455353373291E-5i         2.3976456395520713E-6+1.1856250364455941E-5i
1990.5358527674864                                -1.6553161475513254-0.017681251344032135i         -0.12996411871110405-0.0013609195757117042i       2.0052969356407044+0.021437990972852473i          -3.8429807456837636E-4+0.007575473884541693i      0.0016971669077954536+0.007385521859943245i       -2.9474155238540683E-5+0.00275147290454309i          -5.2026186861337845E-5+0.004865817595263474i         -2.8492259974508887E-7+3.969186504863522E-5i         -2.4732249681135764E-7+3.728475247902127E-5i         4.12333657338021E-6+1.79434655112955E-5i
2233.417960754817                                 -1.9235145631157589-0.016469095724991663i         -0.530628171373732-0.004439427244100247i          2.0056573357442664+0.017201779830200478i          -7.966746674143804E-4+0.01532651454114262i        0.003944058996302409+0.01481126091197639i         -1.2072986366603696E-5+0.0013753998362209558i        -4.0416307172522126E-5+0.004702207295021654i         -9.908708733433765E-8+7.937986208487743E-5i          -4.8110909384656515E-8+7.6968359258998E-5i           9.582254633290325E-6+3.598464747839688E-5i
2505.936168136362                                 -1.0129375712412065-0.17247304255082954i          -0.3965831227952955+0.8253646855239071i           1.0050330679696373+0.059426721119645955i          0.9993538042324945-0.02259570519896759i           0.9281767927787313-0.3662145514068766i            -0.0024006293823936194+6.794147812239605E-5i         -0.0013813093475130978+0.002267967259451953i         0.005080015298039329-4.194764627978271E-4i           0.005133559540639045-4.2760117299036476E-4i          0.0022550493759208963-8.897339698460756E-4i
2811.706625951745                                 -1.8165220378724238-0.051125355569413944i         -1.3314520812622368-0.037347947529027196i         2.003034227827448+0.056310033021347905i           0.0016658088632046017-0.015368041069042706i       -0.004453303784923555-0.01476072882173815i        5.765037173856195E-5-0.0020596631202904553i          -1.026337806929186E-4+0.0036434184247862546i         2.8062439926475074E-6-7.745111305015447E-5i          2.9266640800310535E-6-8.267004510324341E-5i          -1.0819486370033059E-5-3.586189622364151E-5i
3154.7867224009647                                -1.2808774951009447-0.03429769497504323i          -1.6991676419331536-0.04545236104063975i          2.0036761955938873+0.0536136346800082i            9.208581106921082E-4-0.007669551751100787i        -0.0025537343137665455-0.0072579292331393435i     1.0031341526110182E-4-0.003750488712931586i          -6.925313045080235E-5+0.002585757417006444i          1.1813452457941075E-6-3.797148637394174E-5i          1.3144356728102131E-6-4.361032898276771E-5i          -6.204405026769871E-6-1.7633493045377738E-5i
3539.72892192069                                  -0.4003225058751957-0.011322255186330432i         -1.9457845325356018-0.05496797617457174i          2.0037693237618055+0.056607718057484206i          7.375722745573527E-4-0.00505805737265716i         -0.001898353120212774-0.004710064210457387i       1.3498688250326122E-4-0.004778287822745257i          -3.30588833383616E-5+0.0011690947041017963i          7.741942150820057E-7-2.4637331978167448E-5i          9.471944763493333E-7-3.12881755609199E-5i            -4.612129742760331E-6-1.1443336696742215E-5i
3971.6411736214104                                0.6879335712967083+0.021104884848952253i          -1.9914543884212983-0.06111468237018669i          2.0037127150239296+0.06148900406035973i           7.076189750603077E-4-0.0036969490967678604i       -0.0015559681231084586-0.0033764680602436994i     1.4057798467819995E-4-0.004580678735081731i          1.6801591054716943E-5-5.480386894698E-4i             5.969727083184832E-7-1.7892873146175077E-5i          8.378208888983477E-7-2.6204489136221207E-5i          -3.7802906433276477E-6-8.203296902038791E-6i
4456.2546906687285                                1.6517283092719661+0.055661398181573396i          -1.7485271367804658-0.05892767401083301i          2.003516363637214+0.06751797989728674i            8.008887206625223E-4-0.0027768568939372314i       -0.0013086141782622943-0.0024784069675757438i     9.308247817175695E-5-0.002761839567730752i           8.02673888458725E-5-0.0023820525147838184i           5.021401945440179E-7-1.3866515622111982E-5i          8.748433381800334E-7-2.537104457482646E-5i           -3.1793336089251583E-6-6.021425578765682E-6i
4999.999999999999                                 1.995211358978641+0.07406552658410905i            -1.1545004362407856-0.04285835131372141i          2.003180289248128+0.07436011367169842i            0.0012039674865350263-0.001870055775885602i       -9.931733210201382E-4-0.0016350985280434752i      -1.6623082572731205E-5+4.479205957680232E-4i         1.479267123320608E-4-0.00398499614480342i            4.343638606197958E-7-1.0903270727095727E-5i          1.187866453932048E-6-3.170761863708737E-5i           -2.4129508510021067E-6-3.972570397137001E-6i
5610.0922715098195                                1.2898996233690962+0.051901652277659624i          -0.22500187285382647-0.009056612291910605i        1.9978009757371813+0.0803810260007559i            -1.7092046607582856E-4+0.0027260410943382267i     0.0015836073815910252+0.002234489363035788i       -1.5018732910059923E-4+0.0037329222324924255i        1.9494107440225095E-4-0.0048451176040111635i         4.587000535888476E-6-1.138056991638955E-4i           -4.599760756897699E-7+7.659835275493475E-6i          3.8474582728335925E-6+5.428827365472903E-6i
6294.6270589708365                                -0.340108718425289-0.016304020843254392i          0.8637379415246993+0.04142214929120863i           2.0039635208840147+0.09612958272040628i           -0.0015710962278168803-0.004635826770279378i      -0.0028889612570587608-0.00352295301010141i       -2.3063089671735123E-4+0.004807960823446851i         2.110081177104766E-4-0.00439874004280706i            -9.435987809604337E-7+1.8478120629610408E-5i         -1.223056799145199E-6+2.4607407867446255E-5i         -7.018920949936736E-6-8.559215847508158E-6i
7062.687723113769                                 -1.8283223350433455-0.09640315942241964i          1.7624936742310253+0.09293172920602512i           2.002248866958669+0.1055768082574873i             -1.6446165254396317E-4-0.0032968424832986233i     -0.0022917609804772193-0.0023534903008926803i     -1.0491117218971973E-4+0.0019894074213272737i        1.2199602767436969E-4-0.002313429125011499i          -2.0085661320419223E-8+4.310171903383946E-7i         6.911192120172605E-8-1.3076800959800193E-6i          -5.567975163072434E-6-5.717955846692212E-6i
7924.4659623055695                                -1.5577611457578848-0.09215014618890714i          1.9567783167680477+0.11575300828919657i           1.9847393091440966+0.11742292694380624i           -0.018241409759951775-0.003103016085347753i       -0.0015944617446811444-0.001316442448569589i      1.8129413426429654E-4-0.0030648142672236585i         -6.068253917995775E-5+0.001025911923793105i          1.4428210505437208E-5-2.4793156278228546E-4i         -1.5927664771206675E-5+2.735556308177434E-4i         -3.874091061378903E-6-3.1982697369654937E-6i
8891.397050194613                                 0.6715691275470165+0.04364574926138956i           1.0712098579654772+0.06963180809863027i           2.0004305670800755+0.130028321193441i             -0.0010183281135512706-0.0034175662079581354i     -0.0027686532150546796-0.0018779962153531438i     2.989523877445782E-4-0.004599299849615027i           -2.6767950520428525E-4+0.004118350533415003i         -1.2129340459980818E-7+1.3360705875869612E-6i        -7.408827462919064E-7+1.1229517355913576E-5i         -6.726641510951461E-6-4.562737737016336E-6i
9976.311574844403                                 1.9759392602664536+0.14598486082279813i           -0.6357887772954791-0.046966265053996176i         2.000347315654553+0.1477837362647878i             0.0016769469764774687-0.003517227812790908i       -0.003224308914141983-0.0016750811191313434i      -5.5342237363007463E-5+7.492916436884071E-4i         -3.415055198691586E-4+0.004622319829911759i          -1.1372846240558273E-6+1.61496261125758E-5i          1.8157335874075226E-6-2.4745532549657877E-5i         -7.833770138731204E-6-4.070166620769077E-6i
11193.605692841687                                -0.27157278308866456-0.022237154247789805i        -1.9370218911159616-0.15868580836762314i          1.9991039659714307+0.1637774381482745i            6.201748760023711E-4-0.004712055513170181i        -0.00447319405325532-0.001601218077936376i        -3.9658939643818684E-4+0.004840897008005664i         -9.822225977643429E-5+0.001198618040761128i          -1.6915469668567774E-6+2.0616004068543388E-5i        1.1825732990110793E-6-1.4869420811769609E-5i         -1.0868058663934508E-5-3.890339236665778E-6i
12559.43215754791                                 -1.9013507299599588-0.16694031496071346i          -1.279647635154092-0.1123973799466538i            1.997217651983175+0.17533609454333013i            0.0019519078954191695-0.012266760488865764i       -0.012179199537915998-0.0022919763627752446i      1.313443794808001E-4-0.0014981855464755926i          3.286763765913868E-4-0.0037453253836888896i          -2.591366651212765E-6+3.102982847083325E-5i          2.8336767217332415E-6-3.5284442084145736E-5i         -2.959064676757482E-5-5.568632880276238E-6i
14091.914656322273                                1.2645465413162065+0.1350313987190315i            1.0476733703240124+0.11187116465693389i           1.9900034706988212+0.2124996301365358i            -0.00371643282860744+0.003953211514475413i        0.004334695761085687+1.4903656832636298E-4i       4.0373540973913396E-4-0.003780573620277031i          4.42758951161202E-4-0.004146026873138845i            2.5039601451620076E-6-2.2742445442311156E-5i         -3.0376861230241645E-6+2.8179102186315584E-5i        1.053166476897852E-5+3.6207971697954797E-7i
15811.388300841894                                0.5183608344992727+0.06273010285723493i           1.8405969374396656+0.22268900808600106i           1.9952659406294448+0.24141616996396642i           0.003450742281030421+0.0063756076223378325i       0.0058275535236057205-8.900981401750534E-4i       -5.715229147840414E-4+0.0047240556677100596i         -2.2453800986659225E-4+0.0018562615067030642i        -4.813942611174753E-6+3.8484703957601886E-5i         4.0925324335233745E-6-3.204607249115787E-5i          1.4158842518104157E-5-2.1626060951634626E-6i
