% Model:              Three_mic_technique_surogate.mph
% Version:            COMSOL 6.2.0.290
% Date:               Mar 19 2026, 13:58
% Table:              Table 13 - Point Evaluation 2
% l_load (m)                                      freq (Hz)                                         Total acoustic pressure (Pa), Point: 6            Total acoustic pressure (Pa), Point: 7            Total acoustic pressure (Pa), Point: 8            Total acoustic pressure (Pa), Point: 9            Total acoustic pressure (Pa), Point: 10           Total acoustic velocity, z-component (m/s), Point: 6 Total acoustic velocity, z-component (m/s), Point: 7 Total acoustic velocity, z-component (m/s), Point: 8 Total acoustic velocity, z-component (m/s), Point: 9 Total acoustic velocity, z-component (m/s), Point: 10
0.011                                             49.99999999999999                                 2.0010248203406253+6.549197669309088E-4i          2.003416298905526+6.557024791540906E-4i           2.005103525732228+6.562546952929749E-4i           0.004375400682805625+1.4320344087124886E-6i       0.004376017575980369+1.4322363130217793E-6i       -1.0173566285164182E-7+3.108404965692109E-4i         -6.545197163740089E-8+1.9998025162703786E-4i         -1.2413167723783146E-10+3.7926870176732924E-7i       -1.0596527632861131E-10+3.2376354894748236E-7i       -4.49018858359481E-19+1.3721308214173885E-15i
0.011                                             56.10092271509817                                 1.9999691171763985+7.344396452049737E-4i          2.0029794366293934+7.355451112514706E-4i          2.0051034525196147+7.363251040340778E-4i          0.004375756707575136+1.6068894145508225E-6i       0.0043765334185558325+1.607174642623691E-6i       -1.280542925995595E-7+3.487075228555197E-4i          -8.23926387848009E-8+2.2436524788250266E-4i          -1.5628702433028435E-10+4.2558871093012245E-7i       -1.3341714717301152E-10+3.6331123434299267E-7i       -6.499244622800791E-19+1.76756424785604E-15i
0.011                                             62.94627058970836                                 1.9986403287215488+8.23500673606321E-4i           2.002429504180781+8.250619292765566E-4i           2.005103359984223+8.261636392859168E-4i           0.004376205016009512+1.8031297211113116E-6i       0.004377182977475376+1.803532671013967E-6i        -1.611738558373394E-7+3.911697671731034E-4i          -1.0371587077927606E-7+2.5171894657483534E-4i        -1.9677670359795186E-10+4.775780617807316E-7i        -1.6798565412641863E-10+4.077020380627499E-7i        -9.4826387136803E-19+2.3001612066187478E-15i
0.011                                             70.6268772311377                                  1.9969679009947439+9.232003813857E-4i             2.0017372518056304+9.254052573326246E-4i          2.005103243831117+9.269613590206527E-4i           0.004376769565292405+2.0233852181156784E-6i       0.004378000968220174+2.0239544969969215E-6i       -2.028473140043937E-7+4.3877751916813633E-4i         -1.305541962920133E-7+2.824008141581703E-4i          -2.477636513171161E-10+5.35935717079294E-7i          -2.1151853265234572E-10+4.575341699235875E-7i        -1.4026591892613708E-18+3.0416301528423546E-15i
0.011                                             79.24465962305565                                 1.9948631007230628+0.0010347428156104333i         2.000865870499426+0.0010378564743389242i          2.0051030975389974+0.0010400543395637349i         0.004377480545947007+2.2706152335787658E-6i       0.004379031142975731+2.271419533951457E-6i        -2.552768621321648E-7+4.921439248052929E-4i          -1.6433208529950202E-7+3.168130363207584E-4i         -3.1197375557045517E-10+6.014489045489157E-7i        -2.663449138099514E-10+5.134818358877588E-7i         -2.099058324372713E-18+4.048467087530899E-15i
0.011                                             88.91397050194612                                 1.992214363337407+0.0011594401638325385i          1.999769046185866+0.0011638368808168705i          2.005102914265362+0.0011669411154784557i          0.004378376024100918+2.548152000178216E-6i        0.004380328669186426+2.54928841159032E-6i         -3.212274979660988E-7+5.519508918343635E-4i          -2.0684076015160907E-7+3.5540526035603094E-4i        -3.9284330402218835E-10+6.750051414426467E-7i        -3.354016787043538E-10+5.763057574260543E-7i         -3.1671913900441358E-18+5.439080845809164E-15i
0.011                                             99.76311574844398                                 1.9888814619314599+0.001298710322391896i          1.998388510078783+0.0013049182849136894i          2.00510268398957+0.0013093025416586067i           0.00437950400719981+2.859751659412067E-6i         0.004381963128330446+2.861357429317168E-6i        -4.041685009839082E-7+6.189549906674139E-4i          -2.603319903751285E-7+3.986797214713636E-4i          -4.947057004055881E-10+7.576062033591061E-7i         -4.223936462427316E-10+6.468654927619655E-7i         -4.821306815126677E-18+7.383773840854754E-15i
0.011                                             111.93605692841699                                1.9846882200745875+0.0014540671798976001i         1.996650968144386+0.0014628315990088522i          2.0051023949843825+0.0014690234745221458i         0.004380925074745593+3.2096524302311697E-6i       0.004384022331064088+3.211921612219013E-6i        -5.084488943320414E-7+6.939930565104466E-4i          -3.2763537878777024E-7+4.47196722232412E-4i          -6.230279561678799E-10+8.503845367566259E-7i         -5.319967172193497E-10+7.261340001167577E-7i         -7.398907963705765E-18+1.0100898863530148E-14i
0.011                                             125.59432157547896                                1.9794134119739943+0.0016271009935368125i         1.9944642459237023+0.001639472955223941i          2.005102032889017+0.0016482173406240212i          0.004382715713180502+3.602643615637541E-6i        0.004386617158700981+3.6058506495215445E-6i       -6.39514454980173E-7+7.779870387046935E-4i           -4.1230495528785486E-7+5.01580394554591E-4i          -7.84711081374735E-10+9.546227604403941E-7i          -6.701162945079338E-10+8.152150273372772E-7i         -1.1412746627422213E-17+1.3887578146793186E-14i
0.011                                             140.91914656322274                                1.9727794280479245+0.0018194436343136524i         1.9917124558650574+0.0018369050780425145i         2.0051015793903653+0.0018492535216753925i         0.004384972564341108+4.044147209501091E-6i        0.004389887733078771+4.048680342979802E-6i        -8.041746446563673E-7+8.719474230871598E-4i          -5.18801963648464E-7+5.625246211588526E-4i           -9.884722820829308E-10+1.0717769707804318E-6i        -8.442167405167234E-10+9.153641185055451E-7i         -1.7705286302606872E-17+1.91969934782502E-14i
0.011                                             158.11388300841895                                1.9644381999690594+0.0020327115116180582i         1.9882499481445108+0.002057350828178968i          2.0051010123257815+0.0020747875447655203i         0.004387817855569039+4.540314816795492E-6i        0.004394011305035143+4.546723517271137E-6i        -1.0109286149691846E-6+9.769742378029672E-4i         -6.527220933403063E-7+6.307989140521902E-4i          -1.245332416018531E-9+1.20350504843574E-6i           -1.0637425728711916E-9+1.0280143213248504E-6i        -2.7581409866410167E-17+2.6655655539970673E-14i
0.011                                             177.40669461678763                                1.953953784230294+0.0022684169373644618i          1.9838937461489288+0.002303175342262359i          2.0051003044674265+0.002327794817124975i          0.004391406353251847+5.098145427544824E-6i        0.004399212365891858+5.1072077152145925E-6i       -1.2703600288020862E-6+0.0010942542058916594i        -8.210771461123217E-7+7.072539312958333E-4i          -1.5692399965828915E-9+1.3517014360050371E-6i        -1.3406592598285712E-9+1.1548080914597612E-6i        -4.313486357295159E-17+3.715564540229589E-14i
0.011                                             199.05358527674863                                1.9407809174344586+0.0025278339831917105i         1.978414106941504+0.0025768505695394368i          2.0050994228766563+0.0026116077375784937i         0.004395934320119319+5.725629339536589E-6i        0.004405775681353157+5.738447544386364E-6i        -1.5956092883601205E-6+0.0012250519872601406i        -1.0326425123285407E-6+7.928261490870754E-4i         -1.977873069983934E-9+1.518540512541603E-6i          -1.6901506586082747E-9+1.297637490267537E-6i         -6.765472686918342E-17+5.194262731475671E-14i
0.011                                             223.34179607548148                                1.9242387768844609+0.00281180018950433i           1.9715227684424068+0.0028808940764719366i         2.0050983280636934+0.0029299564724916387i         0.004401651107717325+6.43192703928917E-6i         0.00441406317830979+6.450064217930451E-6i         -2.002929019618121E-6+0.001370692584743797i          -1.298383391024099E-6+8.885409701372409E-4i          -2.4936748311144976E-9+1.7065315756922415E-6i        -2.1315237633213075E-9+1.458695640768673E-6i         -1.0641633207425627E-16+7.282732179397654E-14i
0.011                                             250.5936168136362                                 1.9034791419866366+0.003120428263143196i          1.9628583609995558+0.003217770329751718i          2.005096973496755+0.0032870133055893417i          0.004408874263853701+7.227594754524212E-6i        0.004424535978835997+7.253269455656186E-6i        -2.5123219479465163E-6+0.0015325307941890791i        -1.6319735291219152E-6+9.955132151448771E-4i         -3.1451993532983166E-9+1.9185896479771215E-6i        -2.6893905867324644E-9+1.6405436865215653E-6i        -1.6776700849023694E-16+1.0233889345125716E-13i
0.011                                             281.1706625951745                                 1.877448191196563+0.0034526929097324715i          1.9519683688574034+0.003589738123812857i          2.005095305264735+0.003687440418617172i           0.004418009382292139+8.124873826854317E-6i        0.004437783392932312+8.161238924254572E-6i        -3.1482475851791482E-6+0.0017119019449824697i        -2.050420057497504E-6+0.0011149434741642057i         -3.968873383961436E-9+2.158128263633597E-6i          -3.3952252946675254E-9+1.8461994027857886E-6i        -2.6504293130275185E-16+1.441217303882E-13i
0.011                                             315.47867224009644                                1.8448413595196165+0.0038058457029245853i         1.9382869386325763+0.003998620791271067i          2.0050932631805964+0.004136439992856648i          0.00442957644155283+9.13806728131451E-6i          0.004454561456087187+9.189610526329504E-6i        -3.940360650889344E-6+0.0019100459752840761i         -2.574805127365658E-6+0.0012481081373834288i         -5.011323322082298E-9+2.4291832219792056E-6i         -4.289436238385379E-9+2.0792564909176692E-6i         -4.195381993444156E-16+2.0336667118476662E-13i
0.011                                             353.97289219206897                                1.8040511306697973+0.00417459717031387i           1.921107756558809+0.004445467685772019i           2.0050907829177476+0.004639805472685512i          0.004444245174529997+1.028403963472128E-5i        0.004475844783731697+1.0357161530726128E-5i       -4.924205003976326E-6+0.002127993960281281i          -3.2311484730916357E-6+0.0013963400103255657i        -6.332482350923349E-9+2.7365806756627326E-6i         -5.424156797836752E-9+2.3440480133171994E-6i         -6.653491181553766E-16+2.875316271346931E-13i
0.011                                             397.16411736214064                                1.753108532060541+0.004549988013831939i           1.8995511873209125+0.004930062786510279i          2.005087801052123+0.0052039707156271205i          0.004462883245634688+1.1582891135918946E-5i       0.004502897363906985+1.1686743096711591E-5i       -6.141720545924506E-6+0.0023664024189336778i         -4.0513802447432475E-6+0.0015609951612075607i        -8.00979233099031E-9+3.0861697283216503E-6i          -6.8670572543313795E-9+2.6458743682873603E-6i        -1.0572414528153562E-15+4.0735561958675937E-13i
0.011                                             445.6254690668729                                 1.6896207115911115+0.004917855191062037i          1.872524923008268+0.005450221076679387i           2.005084264210093+0.0058360518373019i             0.004486622990075619+1.3058884762046189E-5i       0.004537370875989835+1.3206592914823264E-5i       -7.641314810375127E-6+0.0026253159573760517i         -5.074386425869557E-6+0.0017433999314400285i         -1.0143972745686933E-8+3.4851506977936668E-6i        -8.706637255066968E-9+2.9913273289895345E-6i         -1.6835009191842938E-15+5.783982237747179E-13i
0.011                                             499.99999999999994                                1.61070972888718+0.005256786803680856i            1.8386776104197573+0.00600079333138407i           2.0050801445759303+0.00654387234188115i           0.004516955720119379+1.4741745703457943E-5i       0.004581444008042711+1.4952212664022274E-5i       -9.477084160889847E-6+0.0029038331133787788i         -6.347040483124815E-6+0.0019447697303141289i         -1.2867082482279611E-8+3.942548120655626E-6i         -1.1059713842898145E-8+3.388759968493828E-6i         -2.687110447979297E-15+8.233468913136054E-13i
0.011                                             561.0092271509814                                 1.5129622089870718+0.0055354639076386205i         1.7963454273103605+0.0065722760430570945i         2.0050754646279763+0.007335955123301129i          0.004555868108886142+1.6668521750959955E-5i       0.004638024534305966+1.69691068713721E-5i         -1.1706514521010996E-5+0.003199644019843074i         -7.925051173140001E-6+0.002166088177490967i          -1.6354020001825225E-8+4.469907967791529E-6i         -1.4082247347260472E-8+3.848983284143192E-6i         -4.3009676421404445E-15+1.17554815565822E-12i
0.011                                             629.4627058970837                                 1.392406663440374+0.005709328764861933i           1.7434925544111106+0.007148897269579865i          2.0050703346165224+0.008221452855757722i          0.004606044812234981+1.8886310181502833E-5i       0.004711050462891328+1.931686814825089E-5i        -1.438561406538884E-5+0.0035084027591288343i         -9.873315928814942E-6+0.002407931203947958i          -2.0839325863036212E-8+5.0823515999133795E-6i        -1.7985384586113224E-8+4.386324622056273E-6i         -6.9072981847420744E-15+1.6845699827433649E-12i
0.011                                             706.2687723113777                                 1.2445462605690725+0.00571663720915722i           1.6776482339756509+0.007706026384831094i          2.005065006582884+0.009209966386942572i           0.004671179059622801+2.1456362753961234E-5i       0.004805953085556853+2.2075427095820625E-5i       -1.7559893878448222E-5+0.0038228943630657145i        -1.2265237050660272E-5+0.0026702157830444076i        -2.6642422984983833E-8+5.800215524509632E-6i         -2.3059914187169282E-8+5.020281839143052E-6i         -1.1139161511738386E-14+2.425062709888805E-12i
0.011                                             792.4465962305569                                 1.0644910636430724+0.005474219852426447i          1.5958460585125929+0.008206750133430722i          2.0050599478299755+0.010311161221732682i          0.0047564663752133135+2.4460461490767245E-5i      0.004930395274079489+2.5354903035653973E-5i       -2.124889859198375E-5+0.004131960931158811i          -1.518008050260957E-5+0.0029518471068487005i         -3.4206778476132174E-8+6.651689367763741E-6i         -2.9714773879517933E-8+5.778195266607519E-6i         -1.8057729437221978E-14+3.5114208645249653E-12i
0.011                                             889.1397050194613                                 0.8472567153306187+0.0048738155358515715i         1.4945759371719671+0.008597497422962817i          2.0050559346126393+0.011534016306556613i          0.004869423551824779+2.8011193942640945E-5i       0.005095499623749242+2.9311688883996675E-5i       -2.542113583644404E-5+0.004419171753222158i          -1.869684758283004E-5+0.003250231680632462i          -4.4163014797151555E-8+7.677231638670784E-6i         -3.8540008004736505E-8+6.699736649927923E-6i         -2.946911334272673E-14+5.122865970745319E-12i
0.011                                             997.6311574844393                                 0.5883270121886763+0.0037808554215567323i         1.3697667297190026+0.008802740422321475i          2.0050541638580897+0.012885384755080371i          0.0050213175325126026+3.2269257135357385E-5i      0.005317996704453303+3.41758516544395E-5i         -2.9955449803015537E-5+0.004661273237685437i         -2.2882142253783665E-5+0.0035606181325593426i        -5.7435286533059065E-8+8.937324154785915E-6i         -5.041434662495577E-8+7.844817794726013E-6i          -4.850913904397282E-14+7.548354455946916E-12i
0.011                                             1119.36056928417                                  0.28461425339962265+0.0020393993269494093i        1.2168289511081007+0.008719170316812106i          2.0050563837882924+0.014367202628718724i          0.005229815315114911+3.7474166288066806E-5i       0.005624217850585042+4.0300251973335043E-5i       -3.458464263411634E-5+0.0048265594922618765i         -2.7767868981893425E-5+0.003875225011099521i         -7.54304637353987E-8+1.0526915834178934E-5i          -6.669894961839626E-8+9.30836420842393E-6i           -8.07664717162141E-14+1.127159810001867E-11i
0.011                                             1255.943215754791                                 -0.06401357332953221-5.098836193302699E-4i        1.0308034266294233+0.008210598914747647i          2.005065079116252+0.01597082890616804i            0.005524284323918461+4.4002262412956067E-5i       0.006058096023699169+4.825420187073468E-5i        -3.8818597617078884E-5+0.004873498718864995i         -3.331160045229763E-5+0.004182120238642194i          -1.0039705173211453E-7+1.2604394152111137E-5i        -8.960915387539365E-8+1.125002254174261E-5i          -1.3655540664180507E-13+1.7143911154625034E-11i
0.011                                             1409.1914656322274                                -0.45245510602104255-0.0039860838142968865i       0.8066838171599148+0.007106802991893475i          2.0050839018970086+0.017664586756144594i          0.005957472179766139+5.248472847806171E-5i        0.006698820852878211+5.901593544668343E-5i        -4.184948314005973E-5+0.004750279517672806i          -3.9325966023158446E-5+0.004463838440610924i         -1.361617111682502E-7+1.5455535919964995E-5i         -1.2298507965331782E-7+1.395987388726256E-5i         -2.3583955415956165E-13+2.676983651594219E-11i
0.011                                             1581.1388300841895                                -0.8672119030132762-0.008374298974190762i         0.540005517074571+0.005214605136271871i           2.0051191261638115+0.019362588276457975i          0.006634805030153877+6.406950909656156E-5i        0.007705169704003222+7.440556854309482E-5i        -4.245461253766787E-5+0.004396445047146175i          -4.5345085049372635E-5+0.0046957718674714875i        -1.8979128254958637E-7+1.9654094028492625E-5i        -1.740474678551364E-7+1.8023721915371266E-5i         -4.198966598187696E-13+4.348296880613704E-11i
0.011                                             1774.0669461678763                                -1.2823944183355458-0.013321854413478131i         0.2278014027691561+0.002366461579975687i          2.005185222992725+0.02083039758870846i            0.007802802909762778+8.105759261187226E-5i        0.009449374055326159+9.81626117526925E-5i         -3.893972005207519E-5+0.0037484330630058313i         -5.032546965219325E-5+0.004844453287893615i          -2.7577439954004424E-7+2.654672089123529E-5i         -2.5786609111306336E-7+2.482282314626154E-5i         -7.823157801098763E-13+7.53076378686136E-11i
0.011                                             1990.5358527674864                                -1.6554188490168074-0.017584384816363607i         -0.13010383815039203-0.0013820042927461724i       2.005329390266196+0.021301245721242083i           0.010206543431680605+1.0841714615966254E-4i       0.013058536813544146+1.3871192571922748E-4i       -2.9224427328910054E-5+0.002751228905714443i         -5.1686760153452194E-5+0.004865864681331718i         -4.2716872641869004E-7+4.021426788359862E-5i         -4.09561161945065E-7+3.855666686859547E-5i           -1.5611742112430654E-12+1.4697114707313404E-10i
0.011                                             2233.417960754817                                 -1.9237718749707278-0.0160245117676167i           -0.531141684737139-0.004424269992364155i          2.0057933940491965+0.01670772936710062i           0.01765587763770022+1.470687989024772E-4i         0.024302078354352084+2.0242989602379193E-4i       -1.1447665542817605E-5+0.0013743131405519727i        -3.916779936391523E-5+0.004702165775936172i          -6.793292832118434E-7+8.15547198971553E-5i           -6.728203552569531E-7+8.077331122046934E-5i          -3.2174235141228854E-12+3.862575631913071E-10i
0.011                                             2505.936168136362                                 -1.8886127190689883-0.5363427834075709i           -0.4305692926557551-0.12227638337065352i          1.8354821270153716+0.5212543487450986i            -0.45387011893274154-0.1288935314471552i          -0.6898995792720667-0.19592299516298564i          -2.7065785525027186E-4+9.530618923654242E-4i         -0.0012986255783816194+0.004572823314650319i         7.113267317779076E-4-0.0025047800671397138i          7.350555881068376E-4-0.002588335996775797i           4.397416601005468E-9-1.5484531852745978E-8i
0.011                                             2811.706625951745                                 -1.8164887945911743-0.05074861730658552i          -1.3318031306170302-0.037207588419269924i         2.0032000218030888+0.05596490969216278i           -0.011063170911884359-3.0908014888861215E-4i      -0.01932807813619605-5.399830948691981E-4i        5.756765819970341E-5-0.0020605685648953384i          -1.0177925543048028E-4+0.0036430722004003845i        2.1026486129358928E-6-7.526190554836936E-5i          2.2982715437436584E-6-8.226400492488347E-5i          1.711320966141805E-11-6.125477936180777E-10i
0.011                                             3154.7867224009647                                -1.2808377610012494-0.03422299840019372i          -1.6992356094265582-0.045402266688504056i         2.0037202527540425+0.05353786183623841i           -0.004208807307533448-1.1245608952465674E-4i      -0.009037111409527126-2.4146465624477956E-4i      1.0021434510640039E-4-0.003750644971337865i          -6.908607538483021E-5+0.002585631246449419i          9.984406344362879E-7-3.7367867370426103E-5i          1.1769558664755255E-6-4.4049019243021535E-5i         1.0803058248830984E-11-4.043177272569862E-10i
0.011                                             3539.72892192069                                  -0.40029588119145015-0.011302733544949397i        -1.9458041876798942-0.054941625394927626i         2.003790149266654+0.05657891397711639i            -0.001855589798987834-5.239433662858551E-5i       -0.005596222774865535-1.5801465392557487E-4i      1.3491968093158222E-4-0.004778294739737969i          -3.3008595228817075E-5+0.0011690273515567147i        6.86908716012686E-7-2.4327453848681685E-5i           8.986910721144279E-7-3.182790532644583E-5i           9.971451770496009E-12-3.5314740835276236E-10i
0.011                                             3971.6411736214104                                0.6879486760098331+0.021107145825030257i          -1.9914595303451563-0.061100526998134286i         2.0037260751133723+0.0614768802899605i            -6.159815068671096E-4-1.889910094440247E-5i       -0.003888643841288863-1.1930856961457742E-4i      1.4053977193085766E-4-0.004580635908505523i          1.6815608076245343E-5-5.480738809833135E-4i          5.419602079177236E-7-1.7664198234406828E-5i          8.237197442922203E-7-2.6847633166147783E-5i          1.0638259168087685E-11-3.467345315723421E-10i
0.011                                             4456.2546906687285                                1.6517360098172922+0.05565867983179109i           -1.748528728254811-0.05892031178844913i           2.0035304016883693+0.06751312348350258i           2.4390447168019498E-4+8.218868403916659E-6i       -0.002831421249218124-9.541062729629059E-5i       9.306450222010017E-5-0.002761797265674311i           8.026864179336109E-5-0.0023820652317254193i          4.583353039837415E-7-1.3601632813289163E-5i          8.83668298658391E-7-2.6223883743180137E-5i           1.195718080395344E-11-3.5484323674548005E-10i
0.011                                             4999.999999999999                                 1.9952143861091336+0.07406131640059418i           -1.154501798462884-0.04285450409332802i           2.0032123098469605+0.07435819523749555i           0.001146241673201751+4.254789255553171E-5i        -0.0019232360381454812-7.138951778064253E-5i      -1.6626626445746303E-5+4.479218729790739E-4i         1.479206951044797E-4-0.003984988559337485i           3.7860437871242783E-7-1.0199614845022951E-5i         1.2453427375106754E-6-3.3549575723187494E-5i         1.277061554778517E-11-3.4404081744074704E-10i
0.011                                             5610.0922715098195                                1.2898463528293684+0.051846969314053415i          -0.22493145029317868-0.009041397839275685i        1.9987554004189751+0.08034244537628955i           7.675381513791886E-5+3.08521452842233E-6i         0.002366038775748125+9.510585490295422E-5i        -1.5005163959294212E-4+0.003732977296400762i         1.9475566052834398E-4-0.004845121733848276i          3.7515063870046955E-6-9.332979119091464E-5i          3.462021951577845E-7-8.612801165905358E-6i           -2.387902614382549E-11+5.940612367137998E-10i
0.011                                             6294.6270589708365                                -0.3401216576930267-0.016312900406671948i         0.8637485764403479+0.041427072200354846i          2.003999872001969+0.09611575596346027i            3.4095067831260646E-4+1.635266181905553E-5i       -0.005026686499910333-2.410897224497116E-4i       -2.3059441615188068E-4+0.004807860856404703i         2.1097076303820222E-4-0.004398710470377375i          -9.476907321113608E-7+1.9759217277197622E-5i         -1.3504813303432862E-6+2.8157344090160893E-5i        8.581483561552352E-11-1.7892271445125686E-9i
0.011                                             7062.687723113769                                 -1.8283496541906772-0.09636556314881498i          1.7625207274678858+0.09289596349041805i           2.0023172242457683+0.10553475193848502i           0.0022249795343490357+1.1727046063552025E-4i      -0.004157658145944382-2.1913481828162703E-4i      -1.0484649539547594E-4+0.0019892588969571733i        1.2192630374183E-4-0.002313315126880616i             -7.756070967796506E-8+1.4715640304271665E-6i         -3.203825473574799E-8+6.078637426424215E-7i          1.1007261381038778E-10-2.088414351728146E-9i
0.011                                             7924.4659623055695                                -1.5571422877460057-0.09127842817307137i          1.9566183313291412+0.11469539272307216i           2.000851949245219+0.11728833182479298i            0.002810766337102855+1.6476486176422982E-4i       -0.0050257612100379255-2.9460607952400716E-4i     1.7977407312782314E-4-0.003066812355193046i          -6.028864728521928E-5+0.0010284796071458777i         4.699794572533007E-7-8.017500961241624E-6i           -9.366440924051973E-7+1.5978453516054086E-5i         2.0878504019181935E-10-3.561717931651202E-9i
0.011                                             8891.397050194613                                 0.6720509147762737+0.04351471565033027i           1.0708225810741943+0.0693348364358175i            2.0008416642932327+0.1295527681052215i            0.00875769314012425+5.670530601030909E-4i         -0.011000598929781905-7.122792710697818E-4i       2.9776587943564835E-4-0.004598762245501913i          -2.66703553646294E-4+0.004119028793866987i           -5.009198457238383E-7+7.736317119705717E-6i          -1.450342115589422E-6+2.2399405082516132E-5i         7.122361173704808E-10-1.0999932454445164E-8i
0.011                                             9976.311574844403                                 1.9760002335320614+0.146644820279148i             -0.6351219945487747-0.04713428135320468i          1.9992990564997473+0.1483738951682788i            -0.18095068552887822-0.013428885467637352i        0.1821590909309343+0.013518564805935211i          -5.54827657193938E-5+7.476156275311773E-4i           -3.4305983688059845E-4+0.004622640710621621i         4.637061380944284E-8-6.248317760735371E-7i           2.055890332037267E-6-2.7702579328037785E-5i          -1.9068949886467662E-8+2.569490642080553E-7i
0.011                                             11193.605692841687                                -0.2718180525554367-0.022235046926830142i         -1.9371120784133633-0.1584581233214171i           1.9988785314843152+0.1635106942835746i            -0.010592412596547281-8.664722295623169E-4i       0.011610009072465921+9.497128585736971E-4i        -3.959623008008122E-4+0.0048405429811119675i         -9.799716625851052E-5+0.0011979915603604857i         -1.3981209481102229E-6+1.709168907783218E-5i         8.959403690768131E-7-1.095265344620871E-5i           -1.8890349604614963E-9+2.3092993667574824E-8i