% Model:              Three_mic_technique_surogate_test2remove.mph
% Version:            COMSOL 6.2.0.290
% Date:               Mar 19 2026, 11:04
% Table:              Table 12 - Point Evaluation 2
% freq (Hz)                                       Total acoustic pressure (Pa), Point: 6            Total acoustic pressure (Pa), Point: 7            Total acoustic pressure (Pa), Point: 8            Total acoustic pressure (Pa), Point: 9            Total acoustic pressure (Pa), Point: 10           Total acoustic velocity, z-component (m/s), Point: 6 Total acoustic velocity, z-component (m/s), Point: 7 Total acoustic velocity, z-component (m/s), Point: 8 Total acoustic velocity, z-component (m/s), Point: 9 Total acoustic velocity, z-component (m/s), Point: 10
49.99999999999999                                 1.999244584580735-0.02295028621623527i            2.00217391249634-0.02298391337451345i             2.0048306229175146-0.0230144110259913i            2.0049371957609674-0.023015634426709244i          2.0049713604115933-0.023016026619098504i          4.227216816790275E-6+3.682411736887677E-4i           2.955558191525491E-6+2.5746448881843457E-4i          6.631432973641216E-7+5.776771729771827E-5i           3.2673910810552693E-7+2.846288653017675E-5i          -4.0801494347453656E-14-3.1117927484594847E-12i
56.10092271509817                                 1.9977284953632874-0.025731404057588992i          2.001415560632333-0.025778894678282573i           2.0047598921230154-0.025821970774503326i          2.004894056583945-0.025823698857154364i           2.0049370665634765-0.02582425283992253i           5.320406190767501E-6+4.130644031569204E-4i           3.720356984925783E-6+2.888401715273732E-4i           8.34837956908053E-7+6.481494643130828E-5i            4.113371299162258E-7+3.1935292133132475E-5i          -4.21786590216755E-14-2.9803088698906964E-12i
62.94627058970836                                 1.9958204449806463-0.028843940063217367i          2.000461012371784-0.028911006340658556i           2.0046708503311-0.028971847642329587i             2.004839748942815-0.02897428859409218i            2.0048938940829117-0.028975071108961994i          6.695864085996424E-6+4.633119614339476E-4i           4.682906605822375E-6+3.2402787987131004E-4i          1.0509828848488316E-6+7.272144943861535E-5i          5.178379541133703E-7+3.5831151144500984E-5i          -4.27719409504429E-14-2.7224527848761645E-12i
70.6268772311377                                  1.9934192899906378-0.03232506813820856i           1.9992595598476943-0.03241977331238741i           2.004558756828213-0.032505704508264316i           2.004771380549648-0.03250915239116468i            2.004839543314882-0.03251025771107491i            8.426217620435072E-6+5.19627203335422E-4i            5.894248960973965E-6+3.6348599571689374E-4i          1.3230839640976565E-6+8.159181861618599E-5i          6.519117327344221E-7+4.0202031990391394E-5i          -6.234922973543168E-14-4.148479772868826E-12i
79.24465962305565                                 1.9903979025282499-0.036215156086781615i          1.9977474220888147-0.036348880101313534i          2.004417646147282-0.03647024437983511i            2.004685312407404-0.03647511454945155i            2.0047711211900547-0.03647667583448575i           1.0602630673480353E-5+5.82724365825968E-4i           7.4185480637176645E-6+4.077260490173011E-4i          1.665624252842968E-6+9.154330334341414E-5i           8.206961610930219E-7+4.510575389610397E-5i           -6.785168178626903E-14-3.735076046861455E-12i
88.91397050194612                                 1.9865965577619225-0.04055760502900082i           1.9958443893061362-0.040746405265098026i          2.004240008800571-0.04091780706185371i            2.00457696299281-0.04092468619138217i             2.0046849850085335-0.040926891528057674i          1.3339446903695717E-5+6.533940871314056E-4i          9.336432732543734E-6+4.5731805699454847E-4i          2.096833671063179E-6+1.0270731100315143E-4i          1.0331761008793123E-6+5.0607132350816354E-5i         -9.139257119889945E-14-4.225960241942072E-12i
99.76311574844398                                 1.9818146811037998-0.04539844554028394i           1.9934496199572014-0.045664973053135466i          2.004016392685422-0.045907031536611596i           2.004440564885755-0.045916748266798375i           2.0045765488742946-0.04591986332178155i           1.6779943838094764E-5+7.325083197621173E-4i          1.1749172814145258E-5+5.128960451576596E-4i          2.6396573104524145E-6+1.1523107341589815E-4i         1.300661299481634E-6+5.677880878388411E-5i           -1.0819669290508326E-13-4.9403143457834146E-12i
111.93605692841699                                1.9758005680862207-0.05078557031786211i           1.9904363796060351-0.0511617661987042i            2.0037349023056814-0.0515035886835214i            2.0042688591006486-0.05151731339885728i           2.004440040639716-0.051521713413833464i           2.1103432673256745E-5+8.210240433202797E-4i          1.4783886015765996E-5+5.751635790562076E-4i          3.3229733747412474E-6+1.2927949101470794E-4i         1.6373874650509926E-6+6.370217097894024E-5i          -1.329927002653753E-13-5.3497824790677035E-12i
125.59432157547896                                1.9682386135689698-0.05676743350075155i           1.9866454630514305-0.05729831913459889i           2.0033805679363743-0.05778098873935856i           2.0040527094022784-0.05780037447120313i           2.0042681949210963-0.0578065894492934i            2.653396871950566E-5+9.19984903483264E-4i            1.8600012738587574E-5+6.448990385395819E-4i          4.183124788139295E-6+1.4503716701034933E-4i          2.0612724764014603E-6+7.146837246222183E-5i          -1.8823493786869467E-13-6.685108421698717E-12i
140.91914656322274                                1.9587335056490853-0.06339097644228296i           1.9818769862511787-0.06413997462369499i           2.0029345517316908-0.06482146581862101i           2.003780616275196-0.06484884721450325i            2.0040518659302706-0.06485762573411571i           3.335095741322698E-5+0.0010305195065396715i          2.3397340304616483E-5+7.229602219403007E-4i          5.265844606575384E-6+1.6271063872716414E-4i          2.5948675340554354E-6+8.017945560890219E-5i          -2.3086145067306745E-13-7.166809736166653E-12i
158.11388300841895                                1.9467907588851638-0.0706984479866487i            1.9758801720353958-0.07175484110600419i           2.0023731527500708-0.07271694379244785i           2.0034381083594988-0.07275561806107046i           2.0037795431281684-0.07276801739475518i           4.190194135332967E-5+0.0011538345546272628i          2.942590553894427E-5+8.102876740074538E-4i           6.62867610937744E-6+1.825308158936756E-4i            3.2665535998896244E-6+8.994958931583249E-5i          6.661582144755184E-15+2.1705084620947443E-13i
177.40669461678763                                1.931792885103172-0.07872264028115637i            1.9683406750271875-0.08021200207629091i           2.001666555338309-0.0815700675852876i             2.0030069751892583-0.08162469113761853i           2.003436739395936-0.08164220449182377i            5.2617798471915066E-5+0.0012912001986208224i         3.69981392562674E-5+9.079058060311269E-4i            8.344010823140857E-6+2.0475559107068235E-4i          4.112044166834976E-6+1.0090639282868316E-4i          -3.566802515421625E-15-1.4175881724387151E-13i
199.05358527674863                                1.9129704582649203-0.08747992725332367i           1.9588649138020657-0.08957867562357207i           2.0007772583756314-0.09149532250040637i           2.0024643035643934-0.09157247089009961i           2.003005223098779-0.09159720708051669i            6.603048582702869E-5+0.001443924026449149i           4.650366533911941E-5+0.001016920575816614i           1.0502906093587908E-5+2.2967267707924222E-4i         5.176276606230867E-6+1.1319241501848775E-4i          1.3621884593217463E-14+6.079723003705827E-14i
223.34179607548148                                1.88936737131661-0.09696019155531337i             1.9469608093689916-0.09991582150347533i           1.9996581056481977-0.10262018700657742i           2.0017812670737944-0.10272914524395031i           2.0024620518128593-0.1027640823449661i            8.279316288104935E-5+0.0016133084937439695i          5.8427133167777114E-5+0.0011385117669022817i         1.321987041605432E-5+2.5760254199700566E-4i          6.515785343322545E-6+1.2696666568642341E-4i          8.699555255127294E-15+3.023569889268626E-13i
250.5936168136362                                 1.8597997315024941-0.10711248710113704i           1.932014260541877-0.11127157889958275i            1.9982498182570525-0.1150863204554729i            2.000921606821555-0.11524019827000549i            2.0017783588247346-0.11528954166775694i           1.037020889226041E-4+0.0018005848099260546i          7.336943135863378E-5+0.0012739172848502702i          1.6638862739377418E-5+2.889014464395878E-4i          8.201682718221552E-6+1.4240624720830225E-4i          -2.5771324135711336E-15+7.545635046680532E-14i
281.1706625951745                                 1.8228082391070646-0.1178248619745507i            1.9132606692185514-0.12367163447876624i           1.9964779058251032-0.12905072988040941i           1.999839724448779-0.12926803513875731i            2.0009178277167985-0.12933772286894368i           1.2971882152907247E-4+0.002006813611338265i          9.207244272641515E-5+0.0014244057186579635i          2.0940802171498747E-5+3.239644510676435E-4i          1.0323398491611016E-5+1.5970802350794293E-4i         3.946541838488957E-15+8.207488581845194E-15i
315.47867224009644                                1.7766046754080675-0.1288963204024953i            1.8897508867824164-0.13710531057072162i           1.9942488074803262-0.14468684947698238i           1.9984782919377198-0.14499370726662072i           1.9998347773138516-0.14509212306844926i           1.6198983460287913E-4+0.0022327394355726796i         1.1544715091356087E-4+0.0015912319873481492i         2.635295491989259E-5+3.6322823471951964E-4i          1.2993367267841443E-5+1.7909027166432495E-4i         1.465061726717653E-14+1.7746049353708848E-13i
353.97289219206897                                1.7190145397509127-0.13999839286591936i           1.860311154590122-0.15150574113838908i            1.9914450793247902-0.16218542899936353i           1.996765258176243-0.16261871008671774i            1.9984717581584075-0.16275768928055453i           2.0185836835652748E-4+0.002478581812541301i          1.4460424325810474E-4+0.0017755689303445212i         3.316064561562301E-5+4.0717347388004787E-4i          1.6352897528138584E-5+2.0079422372282202E-4i         2.5814901369159796E-14+2.759044234033569E-13i
397.16411736214064                                1.6474202945041139-0.1506233113076305i            1.8234970663022902-0.16672197568632707i           1.9879194074433777-0.181755077778233i             1.9946101045903506-0.18236680689350063i           1.9967565377330734-0.18256305485070679i           2.5085967832510017E-4+0.0027437408045047915i         1.8088518927243555E-4+0.0019784051299656154i         4.172183357959559E-5+4.563264129999247E-4i           2.057950974394392E-5+2.2508535836128247E-4i          2.2009037038646008E-14+2.7179863351747703E-13i
445.6254690668729                                 1.5587136391483836-0.16001553589654752i           1.777542452840518-0.18248022024402388i            1.9834871829762042-0.20362224115789954i           1.9918991685154357-0.20448580476586597i           1.9945983216762524-0.20476289635513933i           3.1068524131976126E-4+0.0030263894105436962i         2.2588981753057994E-4+0.0022003959650423585i         5.248519948135259E-5+5.112590838568731E-4i           2.5896094942577313E-5+2.5225423370066997E-4i         1.490500961004851E-14+2.0219404173181444E-13i
499.99999999999994                                1.4492715000328238-0.16708372607088887i           1.7203056379530992-0.1983307309652801i            1.9779173301175834-0.22803028788411758i           1.988489812725433-0.22924916908608103i            1.9918830209835328-0.22964036554518624i           3.830931032430174E-4+0.003322920368795828i           2.8149323403993105E-4+0.0024416508485988727i         6.601249987500023E-5+5.725873905552373E-4i           3.2582319523133627E-5+2.826165551874895E-4i          3.642620803305844E-14+3.667371316612337E-13i
561.0092271509814                                 1.3149799928097892-0.17029189458466243i           1.649218114733392-0.21357623604559958i            1.9709210323788307-0.25523724962639427i           1.9842031717755575-0.2569573067332398i            1.9884673286718388-0.2575095214898447i            4.6972951523148514E-4+0.0036272126536818746i         3.498399023014393E-4+0.002701434929347448i           8.300605691683378E-5+6.409659390691353E-4i           4.0988786451043375E-5+3.1651203508226914E-4i         5.711158786492029E-14+4.4837433946524953E-13i
629.4627058970837                                 1.1513446860097631-0.1675326747422341i            1.56124490076613-0.2271774363742623i              1.962137964732422-0.28551156351049356i            1.9788151511093444-0.2879382682799925i            1.9841713122504916-0.2887176456577865i            5.718105678866851E-4+0.003929687507631239i           4.332949899283719E-4+0.0029777587261736716i          1.043423400379587E-4+7.170780202393226E-4i           5.155455435607048E-5+3.543014059158885E-4i           7.802455827480885E-14+4.974904153846248E-13i
706.2687723113777                                 0.9537452077253834-0.15599445843025334i           1.4528723943585606-0.23763164468633172i           1.9511196206025903-0.31912490472245747i           1.9720452927832188-0.3225475053002907i            1.9787691569354926-0.3236472597614234i            6.895918195737039E-4+0.004216142676710782i           5.343215940551858E-4+0.003266825404239267i           1.3111263229321297E-4+8.016185060790877E-4i          6.482870773909495E-5+3.963606781427294E-4i           1.1067544867958093E-13+6.774208066747185E-13i
792.4465962305569                                 0.7179180137785492-0.13205093122696732i           1.3201494371191504-0.24282293964116616i           1.9373093455256747-0.35634083312674836i           1.9635430555484723-0.3611661554776259i            1.9719776068755195-0.3627175726810126i            8.215314222331288E-4+0.004466399454418077i           6.552359799947974E-4+0.0035623051572008977i          1.6467169885642187E-4+8.952665299083093E-4i          8.149674949904117E-5+4.4307135123730905E-4i          1.6347774559583434E-13+9.055876051882089E-13i
889.1397050194613                                 0.4407811632680515-0.09123104663962266i           1.1588215553862977-0.23984805198771272i           1.92001879203447-0.39739748100884786i             1.9528709948325214-0.4041970929145748i            1.9634415469437652-0.40638494169986233i           9.630358937373594E-4+0.0046528906260734585i          7.97770555052787E-4+0.003854414108374672i            2.066950903095669E-4+9.986436164823287E-4i           1.0241262487193251E-4+4.948047576860384E-4i          2.35364318945769E-13+1.1662722262454134E-12i
997.6311574844393                                 0.12174214367557164-0.028375824705610224i         0.9646178361639386-0.22483443938639183i           1.8984007598479595-0.4424818353644635i            1.9394842890214388-0.4520576403137763i            1.9527160510295276-0.45514171742872345i           0.0011046863990905075+0.004739488342204511i          9.623462294393178E-4+0.004128799573658473i           2.592450539176572E-4+0.0011122513242576714i          1.2863713502276686E-4+5.518979884695748E-4i          3.783106165962252E-13+1.6107939992518736E-12i
1119.36056928417                                  -0.2353637346506611+0.06183892341352919i          0.7337743375636546-0.19279017276955723i           1.8714188989962048-0.4916922743027842i            1.9227060862844663-0.50516735130125i              1.9392441160929612-0.5095125150127994i            0.0012299164367603583+0.004681157270930178i          0.0011469257374860154+0.004365288236265254i          3.2484372333223857E-4+0.0012363803843089987i         1.6148327437540388E-4+6.14617856191236E-4i           5.575822658901921E-13+2.1393438020770572E-12i
1255.943215754791                                 -0.6196087501477062+0.18373844291978716i          0.46390415919427347-0.13756588791977759i          1.8378157276631957-0.5449848797390127i            1.9016983285236195-0.5639285915721903i            1.9223292580904923-0.570046476243469i             0.0013123220102578756+0.00442545494533456i           0.0013452987193739861+0.00453666007404586i           4.0654988926031515E-4+0.0013709807525672975i         2.0256848773824256E-4+6.83108039387258E-4i           8.547696034003615E-13+2.880314734256407E-12i
1409.1914656322274                                -1.0096660497831003+0.3384687209747049i           0.1553426305789662-0.052075259435614266i          1.7960821595138496-0.6020977247248055i            1.8754281992206703-0.6286967696072128i            1.9011022691181152-0.6373034466391043i            0.0013132523624390245+0.003917485556098299i          0.0015446647802693878+0.004607798269856047i          5.080316060745683E-4+0.0015154790770165274i          2.53872779083383E-4+7.573128921990556E-4i            1.3228317035918675E-12+3.936581114682812E-12i
1581.1388300841895                                -1.370363195395973+0.5203930742535436i            -0.18691583926380267+0.07098096953336488i         1.744434662781065-0.6624460727325224i             1.8426313493574613-0.6997360961227791i            1.8744818620640984-0.7118312737222602i            0.0011812164963092716+0.0031105248952789212i         0.0017224877403394481+0.004535867060195879i          6.336203741012658E-4+0.0016685272796127726i          3.1779973736008614E-4+8.368694456693563E-4i          2.043026608122295E-12+5.375938060446455E-12i
1774.0669461678763                                -1.650396509621713+0.7118623275430657i            -0.55065899642657+0.23751467759078387i            1.6808106869108812-0.724980815683482i             1.8017747265455002-0.7771560004354606i            1.8411297064059209-0.7941309076172159i            8.560896185973894E-4+0.0019847760781370708i          0.0018428941117104678+0.004272604254897218i          7.883228510285866E-4+0.0018276641865284538i          3.972346022518311E-4+9.209570104916872E-4i           3.1680070814917743E-12+7.325825364173796E-12i
1990.5358527674864                                -1.7837784373566603+0.8769257596402353i           -0.9134817987106889+0.4490780376488244i           1.6028991582425967-0.7880034496018643i            1.7510239274153159-0.8608232701622279i            1.7994011048891836-0.8846060406099979i            2.830062150685433E-4+5.756706061882495E-4i           0.0018535419004070887+0.003770339778881729i          9.77752414430046E-4+0.0019888726665492347i           4.955892895436867E-4+0.0010080915958489774i          4.9197808590064204E-12+1.0017516438313073E-11i
2233.417960754817                                 -1.6991519504827752+0.9563979586673244i           -1.240093064778939+0.6980084832078396i            1.5082300874147032-0.8489341853003841i            1.6882215252199144-0.9502455739865304i            1.7472920583330507-0.983494476340426i             -5.577297152236576E-4-9.908715572927657E-4i          0.0016850934965128503+0.0029937641286624196i         0.0012079247470861768+0.0021460184763834713i         6.168184890995313E-4+0.0010958496192545728i          7.635056252180585E-12+1.3566131378178986E-11i
2505.936168136362                                 -1.3420127233954273+0.8700983119012069i           -1.4814536643798637+0.9605052992633991i           1.3943552773145438-0.9040347768670375i            1.6108828069703673-1.0444211046148515i            1.6823803191085345-1.090776749036309i             -0.001600129131174474-0.0024679896805077815i         0.0012573208875589163+0.0019392528470212726i         0.0014848355557337627+0.002290164434001795i          7.653815009484488E-4+0.001180500753195461i           1.1866741702392342E-11+1.8307618422681933E-11i
2811.706625951745                                 -0.7127063701893902+0.536635045164753i            -1.5785020944918606+1.1885393173753613i           1.2591644765818515-0.9480928106982714i            1.5162171180905863-1.1416416011207982i            1.6017550187112601-1.2060476974878396i            -0.002627435679025411-0.0034895040191766126i         4.982116916257093E-4+6.616762165412094E-4i           0.001813693440063835+0.0024087708770368006i          9.461044451964979E-4+0.001256523723294762i           1.8424722914678648E-11+2.4476107398292487E-11i
3154.7867224009647                                0.08648774010875937-0.07648975318823285i          -1.4744074076469664+1.3039658409775046i           1.1014096726746723-0.9740866619641082i            1.4012010875683512-1.2392221749927255i            1.5019412194107813-1.3283167427877567i            -0.0032262290608941887-0.003647929937103133i         -6.160493730546716E-4-6.965732771244883E-4i          0.0021976042236795997+0.0024848533946568146i         0.0011638564563729277+0.0013159843047940065i         2.848066446971925E-11+3.220552962782549E-11i
3539.72892192069                                  0.8230701965746429-0.8689304873485021i            -1.1391540699569065+1.2026261008013144i           0.9215571432504422-0.9729049854466166i            1.2627797834100365-1.3331400616868188i            1.3788704193722146-1.455699101371431i             -0.0028417029290184236-0.0026917239328625255i        -0.001995317425921933-0.001890008844045886i          0.002635434416067367+0.002496341829906488i           0.0014229026152725148+0.0013478048615941601i         4.392299874680608E-11+4.160641422554022E-11i
3971.6411736214104                                1.180818123945235-1.524149040977589i              -0.605745540768585+0.7818701849973921i            0.7230898318253142-0.9333331283985112i            1.0983082845941303-1.4176489034821416i            1.2279841848950013-1.5850289555569759i            -0.0010589386528834315-8.204013639410937E-4i         -0.0033542990015538224-0.002598707178740308i         0.003118681582494807+0.0024161651101706092i          0.0017258057418925896+0.0013370494903674562i         6.731801752988367E-11+5.2155388713216674E-11i
4456.2546906687285                                0.938378508680781-1.5376891471114986i             -0.003970352451977042+0.006506082373700484i       0.5142330482599485-0.8426563162145982i            0.9062415116800949-1.4850273361798128i            1.0444479397572406-1.7115015387903636i            0.0018292077170012373+0.0011162784206638948i         -0.004164184029560204-0.0025412033421355193i         0.0036274884231368345+0.0022136835545682673i         0.0020718280694297865+0.0012643380736756817i         1.024060886203139E-10+6.249307639017216E-11i
4999.999999999999                                 0.23862542639125933-0.529878779064767i            0.4448020527498941-0.9877034989213648i            0.30991771185041983-0.688186591046336i            0.6869684147052467-1.525445088794043i             0.8233192054028547-1.8282183161659242i            0.004259706868340887+0.0019183149221359524i          -0.003743682325860779-0.001685928606312391i          0.004125840120496992+0.0018580294156283388i          0.002454559030484453+0.0011053852664767972i          1.5417840370858387E-10+6.943375632917129E-11i
5610.0922715098195                                -0.32922633252762373+1.1317955243828557i          0.5250445626138206-1.8049682766563517i            0.13386267588516523-0.46018547873010013i          0.4441392451346661-1.5268365867752254i            0.5600417436761549-1.92527959132923i              0.00379273974100999+0.0011032644748556412i           -0.0016305912708570204-4.743202923183711E-4i         0.004555906988157846+0.0013252610712570746i          0.002858046098813896+8.313728187299442E-4i           2.289477648829381E-10+6.659784149210477E-11i
6294.6270589708365                                -0.2508073480694998+1.980640673539958i            0.23503517410821967-1.8560868690689496i           0.01991409585869034-0.1572628095898357i           0.18686823539142872-1.4757096646156282i           0.2518835236701185-1.9891392962470396i            -4.481006342205906E-4-5.6742717945358214E-5i         0.0017414374200104888+2.205171826984849E-4i          0.00483504187012102+6.122584706040547E-4i            0.003252090376709936+4.118102663422759E-4i           3.33663012039476E-10+4.225195284041099E-11i
7062.687723113769                                 0.031427482334822614+0.6240297600375654i          -0.038472937400987145-0.7639255878008177i         0.010356082021243804+0.20563223345639503i         -0.06846467732689311-1.359446988032601i           -0.10085282449211701-2.002551882860255i           -0.00463744242008848+2.335515845072713E-4i           0.004507531084438446-2.270089705253135E-4i           0.004860503501795972-2.4478542144426064E-4i          0.0035877030028145015-1.8068444786353374E-4i         4.73983707394668E-10-2.3870540961604686E-11i
7924.4659623055695                                -0.41067150270223013-1.6207690185599137i          0.24435483772469996+0.9643784580888892i           0.14886681553442904+0.5875224381169872i           -0.29631029809601095-1.169427505730965i           -0.49247617563530777-1.9436219038142033i          -0.002615939764456195+6.628285112821942E-4i          0.004110415262453118-0.0010414996789002077i          0.0045246354540789836-0.0011464550590811542i         0.0037911143066203237-9.605949961032897E-4i          6.492620136131E-10-1.6451062936316605E-10i
8891.397050194613                                 -0.5805580848525946-1.1427235217396534i           0.9077971379858548+1.7868343745698525i            0.46399277316414816+0.9132858013643617i           -0.46124512571273485-0.9078775546207405i          -0.9081928373248397-1.7876132371056557i           0.0033545514229419036-0.0017042722173739994i         1.3021014927641763E-4-6.615297004139302E-5i          0.0037570621890807157-0.0019087668958145125i         0.0037645214557126445-0.0019125565592530013i         8.429139016752913E-10-4.2824048389321993E-10i
9976.311574844403                                 1.071902087163196+1.2243449553002064i             0.5797083620873805+0.6621528375168205i            0.9412754482836793+1.0751409669540557i            -0.5216705181515702-0.5958610163895934i           -1.320719181967306-1.5085481098696625i            0.0021526273997134067-0.0018846043281766072i         -0.0033050452834492592+0.0028935349655498533i        0.002590775932711193-0.002268199103578154i           0.003392527224847783-0.0029701245534620867i          1.0042444432273566E-9-8.792074872295127E-10i
11193.605692841687                                0.5846954032103312+0.3766735864700134i            -1.2459131788047662-0.8026445612584437i           1.4880809700030317+0.9586543569841682i            -0.43975976592676536-0.2833028740574175i          -1.685576892397096-1.0858855562980356i            -0.0024903089592078734+0.0038656073968383895i        -0.0017844042192101555+0.002769859587091666i         0.001250989536326027-0.0019418612236177268i          0.002570401474664607-0.003989931816248268i           1.020676785535601E-9-1.5843543394095803E-9i
12559.43215754791                                 -1.9193325863932937-0.5083119017963174i           -1.4773492134562096-0.39125797818567315i          1.9119002229223827+0.5063435299520888i            -0.2021849326720965-0.05354622133775785i          -1.938197578680337-0.5133080649122486i            1.7541612259176767E-4-6.623529593181779E-4i          8.11569736795166E-4-0.0030644024637632343i           2.0764656948577052E-4-7.840517336648599E-4i          0.0012543893301925628-0.004736442944681358i          6.813115325133128E-10-2.572562072758589E-9i
14091.914656322273                                1.5466360709462896-0.14390046298009124i           1.364438003765895-0.12694858627284122i            1.9576527181169283-0.1821418373661631i            0.1483739103926791-0.013804847206056315i          -1.996324863139874+0.18573992985937365i           -2.8809392603519856E-4-0.003096421390868075i         -3.3142014764197343E-4-0.003562089645366244i         8.995370606336873E-5+9.668186053577083E-4i           -4.5630773019898156E-4-0.004904376068887468i         -3.481551545159043E-10-3.741957067554675E-9i
15811.388300841894                                -0.5980161147656443+0.31691391510019723i          0.9596487316211746-0.5085582684680521i            1.4571893185778346-0.7722259742211356i            0.4812718370607388-0.2550462101946716i            -1.771550972221206+0.938819450543917i             0.002172355470001083+0.004099231735128847i           0.0019320608703701178+0.0036457961233247833i         0.0013207943743449085+0.0024923371119113767i         -0.002232972316622064-0.004213615595802297i          -2.4852977447747797E-9-4.6897530836385975E-9i
