% Model:              Three_mic_technique_surogate_test2remove.mph
% Version:            COMSOL 6.2.0.290
% Date:               Mar 19 2026, 12:23
% Table:              Table 12 - Point Evaluation 2
% freq (Hz)                                       Total acoustic pressure (Pa), Point: 6            Total acoustic pressure (Pa), Point: 7            Total acoustic pressure (Pa), Point: 8            Total acoustic pressure (Pa), Point: 9            Total acoustic pressure (Pa), Point: 10           Total acoustic velocity, z-component (m/s), Point: 6 Total acoustic velocity, z-component (m/s), Point: 7 Total acoustic velocity, z-component (m/s), Point: 8 Total acoustic velocity, z-component (m/s), Point: 9 Total acoustic velocity, z-component (m/s), Point: 10
49.99999999999999                                 1.0009018402649517+0.06420432344192427i           1.002105801541306+0.041420178005250614i           1.0029636531105777+3.626490450654263E-4i          1.0029478366375875-0.005660764864452566i          1.002897790514376-0.011510434570514731i           0.002431889668287646+1.5630929792250102E-4i          0.002434813167471067+1.008573333700877E-4i           0.0024368637893284655+9.3120772519963E-7i            0.002436820575265666-1.3728665989588403E-5i          0.0024365835580870774-2.7965100490028402E-5i
56.10092271509817                                 1.0003681659557333+0.07202565700518183i           1.0018836728523437+0.046470777201356554i          1.0029636040729866+4.06899190043049E-4i           1.002943692325753-0.00635147382836878i            1.0028806882115209-0.012914846594243135i          0.0024305940292895624+1.7535078002441554E-4i         0.0024342741742597847+1.131554307115402E-4i          0.002436863928988502+1.0448316390968648E-6i          0.002436810686484198-1.540379635456644E-5i           0.002436542007558996-3.1377179869449584E-5i
62.94627058970836                                 0.999696444849944+0.08079606808483626i            1.0016040530215697+0.052136229239962986i          1.0029635426124082+4.565487853191495E-4i          1.002938475227676-0.007126458392966696i           1.0028591580991504-0.014490592517000082i          0.0024289632437502246+1.967028345662627E-4i          0.0024335956791314557+1.2695067526178114E-4i         0.0024368641054704986+1.1723195124805974E-6i         0.0024367982379265123-1.7283315199728765E-5i         0.002436489699541654-3.5205522478228704E-5i
70.6268772311377                                  0.9988510114210151+0.09062918941424569i           1.0012520692840385+0.05849097455772247i           1.0029634650112562+5.1225670106926E-4i            1.0029319070750515-0.007996000241624251i          1.002832053284034-0.01625856574516419i            0.0024269107234902443+2.2064210117798792E-4i         0.002432741593296944+1.424243247505968E-4i           0.002436864327089018+1.3153628910096315E-6i          0.0024367825655936363-1.9392158239957135E-5i         0.0024364238476109606-3.950089070588883E-5i
79.24465962305565                                 0.9977870123103569+0.10165162429103344i           1.000809006743051+0.06561829641801037i            1.0029633674119094+5.74762235870028E-4i           1.0029236383739273-0.00897163498427462i           1.0027979307828223-0.018242203908302685i          0.002424327574079238+2.474767944545522E-4i           0.0024316665049621856+1.5977916758125953E-4i         0.0024368646063073133+1.4758596991540407E-6i         0.0024367628355632365-2.1758302393963017E-5i         0.00243634094602082-4.432022543685078E-5i
88.91397050194612                                 0.9964480530452893+0.11400416099194081i           1.000251316981006+0.07361130078136849i            1.0029632445477499+6.448949091323861E-4i          1.0029132287312321-0.010066304925177993i          1.0027549736512056-0.020467797188389928i          0.002421076881423396+2.775496596157565E-4i           0.00243031327366709+1.7924190828256433E-4i           0.002436864957817182+1.6559393580172908E-6i          0.0024367379970015044-2.441313628503683E-5i          0.0024362365804402653-4.972740069370174E-5i
99.76311574844398                                 0.9947632528519625+0.1278429844797737i            0.9995493744121811+0.08257397510846289i           1.002963089857709+7.235855106461145E-4i           1.0029001238005049-0.011294530318176836i          1.0027008946789078-0.022964833357369617i          0.0024169865612276775+3.112409208269287E-4i          0.0024286100124752048+2.0106574479659273E-4i         0.002436865400277084+1.857991048217244E-6i           0.002436706727167292-2.739187567462996E-5i           0.002436105194032253-5.5794058476538974E-5i
111.93605692841699                                0.9926435612323665+0.14334082309568083i           0.9986659144223438+0.09262231876113453i           1.0029628951081775+8.118784445549058E-4i          1.0028836257371243-0.012672601424564016i          1.0026328146519334-0.02576638372907406i           0.0024118404160342033+3.4897107091662425E-4i         0.0024264662979729267+2.2553311993499386E-4i         0.002436865957234669+2.084695340350013E-6i           0.0024366673609133144-3.0734029307993106E-5i         0.0024359397916567157-6.260054656944E-5i
125.59432157547896                                0.9899771602698731+0.16068793577156829i           0.9975540740444877+0.10388553026470823i           1.002962650012728+9.109456289565459E-4i           1.0028628561016653-0.01421879375355318i           1.002547109229778-0.028909534414441544i           0.002405366972323517+3.912032718055978E-4i           0.0024237684157165937+2.5295861064596696E-4i         0.0024368666585159156+2.3390597224471758E-6i         0.002436617802168006-3.4483921063638244E-5i          0.0024357315678887664-7.02369673795967E-5i
140.91914656322274                                0.9866237384012505+0.18009279859431013i           0.996154935808385+0.11650722502543498i            1.0029623414038977+0.0010221020891382682i         1.0028367088117387-0.01595360927556852i           1.0024392158895201-0.03243586772873459i           0.0023972255773608464+4.384450217981262E-4i          0.002420373399971083+2.8369189084471145E-4i          0.0024368675411213766+2.6244583840992865E-6i         0.0024365554116546895-3.869127518232208E-5i          0.00243546943792791-7.880434723632873E-5i
158.11388300841895                                0.9824073806361815+0.20178228348341873i           0.9943944534834743+0.13064664003978121i           1.0029619529533726+0.001146822949210157i          1.0028037916901893-0.017900047177609853i          1.0023033917900104-0.03639199939133931i           0.0023869891371093776+4.912485871971643E-4i          0.0024161015738914868+3.18120664140494E-4i           0.002436868652392167+2.944678154083937E-6i           0.0024364768675667137-4.341187063523732E-5i          0.0024351394495190706-8.841593669755393E-5i
177.40669461678763                                0.9771077731901199+0.2260010319080688i            0.992179608509165+0.14647976104298444i            1.0029614640022846+0.0012867650552821526i         1.0027623520208915-0.02008390450624586i           1.002132408070905-0.04083017376935251i            0.002374122757610371+5.502094602327123E-4i           0.0024107272201814535+3.5667339448323574E-4i         0.0024368700510867527+3.3039637055396625E-6i         0.002436377987399501-4.870828025958684E-5i           0.002434724039714459-9.919867346684549E-5i
199.05358527674863                                0.9704493759673392+0.2530095872163476i            0.989393614059044+0.16420026293467987i            1.0029608485892507+0.001443786201679855i          1.0027101834404972-0.022534117737795956i          1.0019171661783577-0.045808929898132594i          0.002357957457177518+6.15961814273323E-4i            0.002403966944754333+3.9982160349441256E-4i          0.00243687181176891+3.7070806915482514E-6i           0.0024362535064873857-5.46506856848857E-5i           0.002434201103424133-1.1129477698270281E-4i
223.34179607548148                                0.962088179954369+0.2830806843232732i             0.9858899457416086+0.18402012091297656i           1.002960073973765+0.00161997179724561i            1.0026445083931474-0.025283139770930985i          1.0016462145715574-0.051393833848494976i          0.0023376580067836763+6.891694464438234E-4i          0.0023954651879113825+4.480813408388607E-4i          0.0024368740278753738+4.159374016909725E-6i          0.0024360967970335837-6.131780146503347E-5i          0.0024335428187961788-1.2486354284098471E-4i
250.5936168136362                                 0.9515956463484979+0.31649283081512947i           0.9814849341755014+0.20616966344037763i           1.0029590990566242+0.001817662308940566i          1.0025618305125654-0.02836736378949466i           1.001305141424568-0.057658289137775154i           0.002312183926972779+7.705101309514069E-4i           0.002384776246457723+5.020133030489243E-4i           0.0024368768171503805+4.666839422318227E-6i          0.002435899515938967-6.87979018680172E-5i            0.0024327141718802387-1.4008330843976255E-4i
281.1706625951745                                 0.9384394479958379+0.35351998256615935i           0.975948609344875+0.23089674862053156i            1.002957872152308+0.0020394846215389946i          1.0024577485867876-0.031827595986274056i          1.0008758108126323-0.06468442593611234i           0.0022802427144146126+8.606504541681015E-4i          0.0023713420509164887+5.622208108939491E-4i          0.002436880327684906+5.236202315190068E-6i           0.0024356511608149044-7.71899688156057E-5i           0.0024316711009546308-1.5715361211829018E-4i
315.47867224009644                                0.9219607333652619+0.3944156555241304i            0.9689934426701677+0.25846460422457973i           1.0029563282572356+0.002288387339289521i          1.0023267225120378-0.03570958262565266i           1.0003354028027311-0.07256407111847164i           0.0022402346157981024+9.602070935633341E-4i          0.0023544648377115326+6.293445261085155E-4i          0.0024368847456311+5.875005993662825E-6i             0.0024353385113834434-8.660497227478908E-5i          0.002430358164306133-1.762975517362311E-4i
353.97289219206897                                0.9013478672563007+0.4393892076173639i            0.9602605973145035+0.2891476799112936i            1.0029543856776548+0.0025676805234176613i         1.0021617788492585-0.04006459673274888i           0.9996552076081885-0.08139979769045357i           0.0021901888323578264+0.0010696890205944872i         0.002333273769092624+7.040523189068035E-4i           0.002436890304990595+6.5917103472107065E-6i          0.002434944926690695-9.716729605620269E-5i           0.0024287056107206184-1.9776433270069638E-4i
397.16411736214064                                0.8756070629024603+0.4885712368035498i            0.9493032849326937+0.32322459581008306i           1.0029519418250772+0.0028810804820332166i         1.001954140397325-0.044950089729749974i           0.9987991115818192-0.09130604722678302i           0.002127692153334493+0.001189413188800464i           0.0023066845224530147+7.87022053104973E-4i           0.002436897299881981+7.3958021137263036E-6i          0.002434449460886762-1.0901632237981078E-4i          0.0024266257010307777-2.2183199601349217E-4i
445.6254690668729                                 0.8435311491644579+0.5419640534932753i            0.9355668613337912+0.36096691131984476i           1.0029488678956227+0.003232760305147094i          1.0016927601674677-0.050430413210715314i          0.997721697541843-0.10241031163869975i            0.0020498130253113517+0.0013193838636860872i         0.0022733509520286178+8.789141775787027E-4i          0.0024369060996838705+8.297917967274365E-6i          0.002433825750694271-1.2230818826384934E-4i          0.0024240080928943403-2.488102890060508E-4i
499.99999999999994                                0.8036691296778935+0.5993720095497591i            0.918365413877012+0.4026219535877186i             1.0029450023210666+0.003627406946500255i          1.0013637353817377-0.056577615571111385i          0.9963658634667952-0.11485434971155983i           0.0019530274894646953+0.0014591228890244222i         0.0022316082152413486+9.80329832528325E-4i           0.002436917168090545+9.309981714123597E-6i           0.0024330406162873294-1.3721772586508253E-4i         0.0024207140553200793-2.790436208025697E-4i
561.0092271509814                                 0.754301503823963+0.6603051840112683i             0.8968548625105341+0.44838730508511804i           1.002940142603431+0.004070285823929577i           1.0009495706774714-0.06347231715879433i           0.9946598406734383-0.12879539783999383i           0.0018331590265144027+0.0016074350662834348i         0.002179407404760935+0.001091748619921626i           0.0024369310867040513+1.044535697603577E-5i          0.002432052301855019-1.5394059668612649E-4i          0.002416569224178518-3.129140047672132E-4i
629.4627058970837                                 0.6934299800296949+0.7238487644443259i            0.870003114935446+0.4983737246322676i             1.0029340352429346+0.004567314047383491i          1.0004282521032026-0.07120466587107975i           0.9925134654363321-0.1444073112937663i            0.0016853532270215369+0.0017620900045283207i         0.0021142429797858923+0.001213438178805542i          0.002436948584319195+1.1719016756047498E-5i          0.0024308082639029173-1.7269562565790423E-4i         0.0024113545440933234-3.50843830174691E-4i
706.2687723113777                                 0.6187958163971354+0.7884899202760693i            0.8365587382129807+0.5525522500264078i            1.002926363362265+0.005125143647599458i           0.999772083806478-0.07987537215371969i            0.9898135255841245-0.16188153903726346i           0.001504121801361351+0.001919400492238326i           0.0020330765184284885+0.0013453252093481387i         0.0024369705730579146+1.3147731241933727E-5i         0.0024292423920469486-1.9372733459845857E-4i         0.0024047949627671586-3.9329823134827467E-4i
792.4465962305569                                 0.5279492963409033+0.8518950221217658i            0.7950211667252935+0.6106800238376449i            1.0029167315759953+0.005751256399768087i          0.9989462273760429-0.0895968178429128i            0.9864179660159755-0.18142778772712884i           0.00128351052226525+0.0020736800451806115i           0.001932264081461949+0.0014868146571373568i          0.002436998192672008+1.4750275170751496E-5i          0.0024272715183300975-2.1730866419033656E-4i         0.0023965453531500525-4.407867006488837E-4i
889.1397050194613                                 0.41840450966436543+0.9106345183817733i           0.7436179987969254+0.6721980997123783i            1.0029046476893397+0.006454072228162235i          0.997906869144328-0.10049422630982896i            0.9821486948057714-0.2032741632162558i            0.0010174740154807664+0.0022165731830182047i         0.0018075006085058402+0.0016365406543471163i         0.002437032864516449+1.6547655858494754E-5i          0.002424791035663677-2.4374385796609676E-4i          0.0023861730355566467-4.938634328672806E-4i
997.6311574844393                                 0.2879290119402815+0.9598637393553343i            0.6802989158930146+0.7360933900782619i            1.0028895007840506+0.007243073571623737i          0.9965989226728441-0.11270687107396198i           0.9767826860738228-0.22766648319278293i           7.005777510648899E-4+0.0023362787427472563i          0.0016538044144329752+0.0017920301684921376i         0.0024370763565993068+1.8563362766442918E-5i         0.0024216694022086713-2.7337145817591616E-4i         0.002373136161878054-5.531256547335692E-4i
1119.36056928417                                  0.13503619914069773+0.9929903808576629i           0.6027618134719188+0.800716577153684i             1.0028705354165133+0.008128948640319102i          0.9949531517641029-0.12638928488755652i           0.970041030981304-0.254866321997079i              3.2919204715823805E-4+0.002416741379239437i          0.0014655795365874102+0.0019492595271887688i         0.00243713086101215+2.0823639078526146E-5i           0.0024177412552462054-3.065673287564083E-4i          0.0023567571145135828-6.192088754199361E-4i
1255.943215754791                                 -0.04023450505626082+1.0014009252579676i          0.5085355982879827+0.8635493332666135i            1.002846821896219+0.009123757129878665i           0.9928825729301215-0.14171240932383297i           0.9615755509892706-0.28514716443036353i           -9.661493417317585E-5+0.0024369875885381365i         0.0012368152045247524+0.0021020877712808654i         0.0024371990844451073+2.3357775250470174E-5i         0.0024127987934302233-3.4374757009931274E-4i         0.0023361899827756055-6.927775422703161E-4i
1409.1914656322274                                -0.23515842748532698+0.9743886915683595i          0.39515647032525975+0.9209195874539841i           1.0028172231790968+0.01024112271667422i           0.9902779649991715-0.15886459330661273i           0.9509525709129395-0.3187877914484793i            -5.702628361557605E-4+0.002370954186971002i          9.615117591320466E-4+0.0022415640297639757i          0.0024372843514901986+2.6198423973663485E-5i         0.0024065810091997-3.8537111743667445E-4i            0.0023103811388561412-7.745089716106383E-4i
1581.1388300841895                                -0.4427230788300166+0.8995356808131125i           0.2604905653710574+0.9676762503932764i            1.002780359880364+0.011496457454737423i           0.9870022772254794-0.17805230397204067i           0.9376334752498072-0.35606167419357154i           -0.0010747654775493652+0.0021884236860654476i        6.344614694236547E-4+0.002355137135586479i           0.002437390718534789+2.9381935451208772E-5i          0.002398760262487168-4.3194171039239755E-4i          0.0022780219985088536-8.650675815378667E-4i
1774.0669461678763                                -0.6496194271293688+0.7639517506172597i           0.10327430246129728+0.9968602297849543i           1.0027345765259132+0.012907223874657701i          0.9828836863351625-0.19950034949424236i           0.9209517764464551-0.3972206862083105i            -0.001577845080346325+0.0018580490842307926i         2.5255786242419764E-4+0.002425857793464973i          0.0024375230929103027+3.294871170651488E-5i          0.002388925583055194-4.8400877300346936E-4i          0.0022374933072626694-9.650653210057478E-4i
1990.5358527674864                                -0.8341095075029991+0.5569448764126746i           -0.07604010091978752+0.9994547474125157i          1.0026779146509917+0.01449324079360622i           0.977707008823927-0.2234513238877347i             0.9000866674288294-0.4424708258333312i            -0.002026735492442646+0.0013538636477633966i         -1.8315301049430508E-4+0.0024317762081014606i        0.0024376873467947388+3.694357912892826E-5i          0.0023765619740358773-5.421665342849846E-4i          0.0021868008846543698-0.0010750026874898466i
2233.417960754817                                 -0.9645379776806987+0.27479777892222906i          -0.27404459773459394+0.9643751555179347i          1.0026081018521817+0.016277038023668953i          0.9712031307018214-0.2501638585722091i            0.8740335066002926-0.4919368415305657i            -0.0023445326539752905+6.669153742683285E-4i         -6.644601584651928E-4+0.0023459259308058096i         0.002437890407077723+4.141618088646336E-5i           0.0023610248695309583-6.07050425325979E-4i           0.002123503915445534-0.00119518278405197i
2505.936168136362                                 -1.0000681127287518-0.07185950440023091i          -0.4826887316595826+0.8789762563983043i           1.0025225702554599+0.018284262571203774i          0.9630360789437944-0.27990909132117836i           0.8415725367947355-0.5456116529454383i            -0.0024319274258174203-1.7679150984716078E-4i        -0.0011718835923296739+0.002137570741182817i         0.002438140289195472+4.6421397822374626E-5i          0.002341508786762368-6.79329377190228E-4i            0.002044638949450905-0.001325588437487736i
2811.706625951745                                 -0.896321258265035-0.4484976291044732i            -0.6872172084327031+0.7305134989999462i           1.0024185230202076+0.020544133934996336i          0.9527873392816947-0.3129645220734174i            0.8012385910113173-0.6032852729089866i            -0.0021808364800956783-0.0010930778478856228i        -0.0016696438130811419+0.0017757747123809306i        0.0024384460244988044+5.20198241764102E-5i           0.002317009133990631-7.596920690113988E-4i           0.001946646297750946-0.0014657095134383504i
3154.7867224009647                                -0.6195149213236072-0.7876705206372111i           -0.8640852050113284+0.5091619217067052i           1.0022930741756189+0.023089937645870664i          0.939937046297516-0.34960409454008673i            0.7512969129186737-0.6644466485380868i            -0.0015087037132098147-0.0019177176053958654i        -0.0021005555303573774+0.0012367586073873714i        0.0024388174117600256+5.8278362359974166E-5i         0.002286276139073163-8.488243795925616E-4i           0.0018253112833406745-0.0016143044375286982i
3539.72892192069                                  -0.171999192369513-0.9875608164982281i            -0.9797464173763715+0.21326684645271404i          1.0021434971851932+0.02595952931746441i           0.9238417722613012-0.39008290023051667i           0.6897339778914342-0.7281506975411811i            -4.2061009001726136E-4-0.0024030194260693167i        -0.0023830142611432855+5.166686453577179E-4i         0.002439264519457342+6.527106484099781E-5i           0.002247760036724964-9.473742169047495E-4i           0.0016757419339268232-0.0017690771564555184i
3971.6411736214104                                0.3731862845874305-0.9309022653787119i            -0.9920845842082053-0.1427804950052406i           1.001967626260829+0.02919578216870912i            0.903708871644595-0.4346143300931166i             0.614277936386962-0.7928423506126099i             9.06438830806377E-4-0.0022639885711976766i           -0.0024143866062682263-3.493083694073126E-4i         0.0024397968909846096+7.30804291218398E-5i           0.002199547111941118-0.0010558984829165464i          0.0014924186398226629-0.0019262496426844585i
4456.2546906687285                                0.8450147049190505-0.5399665665896337i            -0.8573752862586523-0.5187640381050672i           1.0017644299750403+0.03284683805660633i           0.8785677576787002-0.4833367686421452i            0.5224717151702221-0.8561306272561374i            0.0020565118098696197-0.0013120822593900058i         -0.002087863455263042-0.0012632614748450584i         0.002440422438373018+8.179943705889328E-5i           0.0021392870810645215-0.001174785081235284i          0.001269371741741146-0.0020800130002594755i
4999.999999999999                                 0.9938655128856537+0.12876031150705658i           -0.5464202382469077-0.840335330030572i            1.0015346751276546+0.036965958102277624i          0.8472392247990422-0.536265958468563i             0.4118336465182114-0.9145104638269059i            0.0024211327813968434+3.1482806418900867E-4i         -0.0013317328922069292-0.0020445021569331276i        0.002441146045706409+9.153482413726681E-5i           0.0020641139165333226-0.001304140367022095i          0.0010005717654312783-0.0022218516265986176i
5610.0922715098195                                0.6137196768995427+0.7925793845771749i            -0.07221294943236796-1.0002743233305058i          1.0012814769745222+0.04161078298132659i           0.808305316413591-0.593227965770761i              0.28015621100678434-0.9630414482184192i           0.0014964742129120168+0.0019292698338525497i         -1.7696274165194707E-4-0.0024327296216055555i        0.002441968243227537+1.024124642970176E-4i           0.0019705654099856362-0.0014436292342207297i         6.806552025218975E-4-0.0023397626658491844i
6294.6270589708365                                -0.21739334998338294+0.9791239860325843i          0.47508762638871554-0.8831848963397448i           1.0010104379940488+0.04684174637283175i           0.7600845237114321-0.6537666071267787i            0.1260118818781377-0.9950162286268276i            -5.295370350066362E-4+0.0023830223598707095i         0.0011570945550171356-0.002147892713136486i          0.0024428852897355182+1.1458573673431256E-4i         0.0018545121954020804-0.0015922519347772758i         3.061534483269856E-4-0.002417450355015835i
7062.687723113769                                 -0.9352804669069787+0.3600413724907961i           0.9059035778344807-0.4287164560235389i            1.000728501937596+0.05271928892157025i            0.70062016200932-0.7170181950959922i              -0.05044832554815484-1.001694198970587i           -0.0022814064350420507+8.769550770489438E-4i         0.002207885044946273-0.0010432201365783576i          0.0024438925309542537+1.2824686114827925E-4i         0.0017111144360356031-0.0017480385184784099i         -1.2256711941548956E-4-0.0024336789298556602i
7924.4659623055695                                -0.7415947859593176-0.6749064919223448i           0.9656425837109979+0.26872832946042585i           1.0004399407840585+0.05930054117848491i           0.6276951155024123-0.7815452927322589i            -0.2463123906146455-0.9722481562382598i           -0.0018089722011493683-0.0016437189146039552i        0.002353566501928135+6.531260039660512E-4i           0.0024449936001255967+1.4364118504854578E-4i         0.0015348378134646063-0.0019076378758159816i         -5.9843230793496E-4-0.002362142905849013i
8891.397050194613                                 0.39662757618640954-0.920638490670529i            0.4808679376356312+0.8801864632149552i            1.0001384002965437+0.06663708477210262i           0.5388942238560742-0.8451228560275875i            -0.454279670974588-0.8941846998902473i            9.699292869496844E-4-0.0022461819094521554i          0.0011707155848936846+0.002143085662701396i          0.0024462208247888976+1.6108083788753634E-4i         0.001319581302640919-0.002065781247696053i           -0.0011037057023505696-0.00217248827026425i
9976.311574844403                                 0.9767264993514679+0.22680999233171312i           -0.3874929704299213+0.9243106426131524i           0.999793276486534+0.07477722923164526i            0.4317451616995818-0.9044731062306653i            -0.6606346143781602-0.7546510429475491i           0.0023851650536819177+5.518039355915883E-4i          -9.469536973554236E-4+0.0022542904791379424i         0.002447667502264597+1.809483051049423E-4i           0.0010589948022550252-0.0022146063250750537i         -0.0016050655429972085-0.0018334871812470607i
11193.605692841687                                -0.21656932541719462+0.9785078541289314i          -0.9887928016217795+0.16591444196440353i          0.9993332492864887+0.08377985101043793i           0.3039849486953331-0.9549553880618378i            -0.8431236122227541-0.5432117290960715i           -5.311889161594099E-4+0.002393964444539092i          -0.00241182290324335+4.0669989446955014E-4i          0.0024495287725379185+2.0367695970797538E-4i         7.471078542019378E-4-0.002342852463125694i           -0.0020484460434300683-0.0013197838415038843i
12559.43215754791                                 -0.9243089970900613-0.3894232122024865i           -0.5729490710036941-0.82275718640818i             0.9986354411453875+0.09374589653853353i           0.15401517009283522-0.990236255127494i            -0.969539440063383-0.25676804209196324i           -0.0022608752645696473-9.533193512908867E-4i         -0.001396870624276018-0.002010347565177863i          0.00245212600716172+2.296915719833202E-4i            3.794333443704627E-4-0.0024349865973543852i          -0.0023555974339446164-6.23846262075872E-4i
14091.914656322273                                0.7149848702731374-0.70295094977287i              0.6147749465255695-0.7919062767207564i            0.9975410429174674+0.1048668274992036i            -0.01837040684341831-1.0020028227772089i          -0.9986502738070444+0.09292174605627032i          0.0017517109017764702-0.0017253741827617324i         0.001501407655703345-0.0019370482004816328i          0.002455867034443973+2.59314715634021E-4i            -4.523834950658504E-5-0.002470417582870141i          -0.0024263417473994187+2.257626328671078E-4i
15811.388300841894                                0.14254927283730084+0.9920371143637702i           0.8744890492846735+0.4898847591498477i            0.9959205222875059+0.11746435658657377i           -0.21089106194786397-0.9798464435159934i          -0.886215989782016+0.4696366029535838i            3.521049549424869E-4+0.002439925537446051i           0.0021401114884615604+0.0012018597494220652i         0.002461078294255011+2.927059140331524E-4i           -5.221182926336504E-4-0.0024231185805273395i         -0.0021531880035488456+0.0011410458535227553i
